
.Version 7.8.2 of ABINIT 
.(sequential version, prepared for a x86_64_linux_gnu5.2 computer) 

.Copyright (C) 1998-2014 ABINIT group . 
 ABINIT comes with ABSOLUTELY NO WARRANTY.
 It is free software, and you are welcome to redistribute it
 under certain conditions (GNU General Public License,
 see ~abinit/COPYING or http://www.gnu.org/copyleft/gpl.txt).

 ABINIT is a project of the Universite Catholique de Louvain,
 Corning Inc. and other collaborators, see ~abinit/doc/developers/contributors.txt .
 Please read ~abinit/doc/users/acknowledgments.html for suggested
 acknowledgments of the ABINIT effort.
 For more information, see http://www.abinit.org .

.Starting date : Tue  1 Aug 2017.
- ( at 21h06 )
  
- input  file    -> t35_comprimido.in
- output file    -> t3x_comprimido.out
- root for input  files -> t3xi_comprimido
- root for output files -> t3xo_comprimido


 DATASET    1 : space group Fd -3 m (#227); Bravais cF (face-center cubic)
================================================================================
 Values of the parameters that define the memory need for DATASET  1.
   intxc =         0  ionmov =         0    iscf =         7 xclevel =         1
  lmnmax =         2   lnmax =         2   mband =         5  mffmem =         1
P  mgfft =        20   mkmem =        10 mpssoang=         3     mpw =       289
  mqgrid =      3001   natom =         2    nfft =      8000    nkpt =        10
  nloalg =         4  nspden =         1 nspinor =         1  nsppol =         1
    nsym =        48  n1xccc =      2501  ntypat =         1  occopt =         1
================================================================================
P This job should need less than                       3.114 Mbytes of memory.
  Rough estimation (10% accuracy) of disk space for files :
_ WF disk file :      0.222 Mbytes ; DEN or POT disk file :      0.063 Mbytes.
================================================================================


 DATASET    2 : space group Fd -3 m (#227); Bravais cF (face-center cubic)
================================================================================
 Values of the parameters that define the memory need for DATASET  2.
   intxc =         0  ionmov =         0    iscf =        -2 xclevel =         1
  lmnmax =         2   lnmax =         2   mband =         8  mffmem =         1
P  mgfft =        20   mkmem =        40 mpssoang=         3     mpw =       291
  mqgrid =      3001   natom =         2    nfft =      8000    nkpt =        40
  nloalg =         4  nspden =         1 nspinor =         1  nsppol =         1
    nsym =        48  n1xccc =      2501  ntypat =         1  occopt =         1
================================================================================
P This job should need less than                       3.482 Mbytes of memory.
  Rough estimation (10% accuracy) of disk space for files :
_ WF disk file :      1.423 Mbytes ; DEN or POT disk file :      0.063 Mbytes.
================================================================================

--------------------------------------------------------------------------------
------------- Echo of variables that govern the present computation ------------
--------------------------------------------------------------------------------
-
- outvars: echo of selected default values                                      
-   accesswff0 =  0 , fftalg0 =112 , wfoptalg0 =  0
-
- outvars: echo of global parameters not present in the input file              
-  max_nthreads =    0
-
 -outvars: echo values of preprocessed input variables --------
            acell      1.0100000000E+01  1.0100000000E+01  1.0100000000E+01 Bohr
              amu      2.80855000E+01
           diemac      1.20000000E+01
             ecut      8.00000000E+00 Hartree
           enunit1          0
           enunit2          1
-          fftalg         112
           getden1          0
           getden2         -1
             iscf1          7
             iscf2         -2
           istwfk2       3    0    0    0    0    0    0    0    0    0
                         2    0    0    0    0    0    0    0    0    0
                         0    0    8    0    0    0    0    0    0    0
                         0    0    0    0    0    0    0    0    0    0
           jdtset        1    2
              kpt1    -1.25000000E-01 -2.50000000E-01  0.00000000E+00
                      -1.25000000E-01  5.00000000E-01  0.00000000E+00
                      -2.50000000E-01 -3.75000000E-01  0.00000000E+00
                      -1.25000000E-01 -3.75000000E-01  1.25000000E-01
                      -1.25000000E-01  2.50000000E-01  0.00000000E+00
                      -2.50000000E-01  3.75000000E-01  0.00000000E+00
                      -3.75000000E-01  5.00000000E-01  0.00000000E+00
                      -2.50000000E-01  5.00000000E-01  1.25000000E-01
                      -1.25000000E-01  0.00000000E+00  0.00000000E+00
                      -3.75000000E-01  0.00000000E+00  0.00000000E+00
              kpt2     5.00000000E-01  0.00000000E+00  0.00000000E+00
                       4.50000000E-01  0.00000000E+00  0.00000000E+00
                       4.00000000E-01  0.00000000E+00  0.00000000E+00
                       3.50000000E-01  0.00000000E+00  0.00000000E+00
                       3.00000000E-01  0.00000000E+00  0.00000000E+00
                       2.50000000E-01  0.00000000E+00  0.00000000E+00
                       2.00000000E-01  0.00000000E+00  0.00000000E+00
                       1.50000000E-01  0.00000000E+00  0.00000000E+00
                       1.00000000E-01  0.00000000E+00  0.00000000E+00
                       5.00000000E-02  0.00000000E+00  0.00000000E+00
                       0.00000000E+00  0.00000000E+00  0.00000000E+00
                       0.00000000E+00  4.16666667E-02  4.16666667E-02
                       0.00000000E+00  8.33333333E-02  8.33333333E-02
                       0.00000000E+00  1.25000000E-01  1.25000000E-01
                       0.00000000E+00  1.66666667E-01  1.66666667E-01
                       0.00000000E+00  2.08333333E-01  2.08333333E-01
                       0.00000000E+00  2.50000000E-01  2.50000000E-01
                       0.00000000E+00  2.91666667E-01  2.91666667E-01
                       0.00000000E+00  3.33333333E-01  3.33333333E-01
                       0.00000000E+00  3.75000000E-01  3.75000000E-01
                       0.00000000E+00  4.16666667E-01  4.16666667E-01
                       0.00000000E+00  4.58333333E-01  4.58333333E-01
                       0.00000000E+00  5.00000000E-01  5.00000000E-01
                       5.88235294E-02  5.29411765E-01  5.29411765E-01
                       1.17647059E-01  5.58823529E-01  5.58823529E-01
                       1.76470588E-01  5.88235294E-01  5.88235294E-01
                       2.35294118E-01  6.17647059E-01  6.17647059E-01
                       2.94117647E-01  6.47058824E-01  6.47058824E-01
                       3.52941176E-01  6.76470588E-01  6.76470588E-01
                       4.11764706E-01  7.05882353E-01  7.05882353E-01
                       4.70588235E-01  7.35294118E-01  7.35294118E-01
                       5.29411765E-01  7.64705882E-01  7.64705882E-01
                       5.88235294E-01  7.94117647E-01  7.94117647E-01
                       6.47058824E-01  8.23529412E-01  8.23529412E-01
                       7.05882353E-01  8.52941176E-01  8.52941176E-01
                       7.64705882E-01  8.82352941E-01  8.82352941E-01
                       8.23529412E-01  9.11764706E-01  9.11764706E-01
                       8.82352941E-01  9.41176471E-01  9.41176471E-01
                       9.41176471E-01  9.70588235E-01  9.70588235E-01
                       1.00000000E+00  1.00000000E+00  1.00000000E+00
           kptopt1          1
           kptopt2         -3
         kptrlatt        4   -4    4     -4    4    4     -4   -4    4
          kptrlen1     4.04000000E+01
          kptrlen2     3.00000000E+01
P           mkmem1         10
P           mkmem2         40
            natom           2
            nband1          5
            nband2          8
           nbdbuf1          0
           nbdbuf2          2
           ndtset           2
            ngfft          20      20      20
             nkpt1         10
             nkpt2         40
            nstep          10
             nsym          48
           ntypat           1
              occ      2.000000  2.000000  2.000000  2.000000  0.000000
            rprim      0.0000000000E+00  5.0000000000E-01  5.0000000000E-01
                       5.0000000000E-01  0.0000000000E+00  5.0000000000E-01
                       5.0000000000E-01  5.0000000000E-01  0.0000000000E+00
           shiftk      5.00000000E-01  5.00000000E-01  5.00000000E-01
          spgroup         227
           symrel      1  0  0   0  1  0   0  0  1      -1  0  0   0 -1  0   0  0 -1
                       0 -1  1   0 -1  0   1 -1  0       0  1 -1   0  1  0  -1  1  0
                      -1  0  0  -1  0  1  -1  1  0       1  0  0   1  0 -1   1 -1  0
                       0  1 -1   1  0 -1   0  0 -1       0 -1  1  -1  0  1   0  0  1
                      -1  0  0  -1  1  0  -1  0  1       1  0  0   1 -1  0   1  0 -1
                       0 -1  1   1 -1  0   0 -1  0       0  1 -1  -1  1  0   0  1  0
                       1  0  0   0  0  1   0  1  0      -1  0  0   0  0 -1   0 -1  0
                       0  1 -1   0  0 -1   1  0 -1       0 -1  1   0  0  1  -1  0  1
                      -1  0  1  -1  1  0  -1  0  0       1  0 -1   1 -1  0   1  0  0
                       0 -1  0   1 -1  0   0 -1  1       0  1  0  -1  1  0   0  1 -1
                       1  0 -1   0  0 -1   0  1 -1      -1  0  1   0  0  1   0 -1  1
                       0  1  0   0  0  1   1  0  0       0 -1  0   0  0 -1  -1  0  0
                       1  0 -1   0  1 -1   0  0 -1      -1  0  1   0 -1  1   0  0  1
                       0 -1  0   0 -1  1   1 -1  0       0  1  0   0  1 -1  -1  1  0
                      -1  0  1  -1  0  0  -1  1  0       1  0 -1   1  0  0   1 -1  0
                       0  1  0   1  0  0   0  0  1       0 -1  0  -1  0  0   0  0 -1
                       0  0 -1   0  1 -1   1  0 -1       0  0  1   0 -1  1  -1  0  1
                       1 -1  0   0 -1  1   0 -1  0      -1  1  0   0  1 -1   0  1  0
                       0  0  1   1  0  0   0  1  0       0  0 -1  -1  0  0   0 -1  0
                      -1  1  0  -1  0  0  -1  0  1       1 -1  0   1  0  0   1  0 -1
                       0  0  1   0  1  0   1  0  0       0  0 -1   0 -1  0  -1  0  0
                       1 -1  0   0 -1  0   0 -1  1      -1  1  0   0  1  0   0  1 -1
                       0  0 -1   1  0 -1   0  1 -1       0  0  1  -1  0  1   0 -1  1
                      -1  1  0  -1  0  1  -1  0  0       1 -1  0   1  0 -1   1  0  0
            tnons      0.0000000  0.0000000  0.0000000     0.2500000  0.2500000  0.2500000
                       0.0000000  0.0000000  0.0000000     0.2500000  0.2500000  0.2500000
                       0.0000000  0.0000000  0.0000000     0.2500000  0.2500000  0.2500000
                       0.0000000  0.0000000  0.0000000     0.2500000  0.2500000  0.2500000
                       0.0000000  0.0000000  0.0000000     0.2500000  0.2500000  0.2500000
                       0.0000000  0.0000000  0.0000000     0.2500000  0.2500000  0.2500000
                       0.0000000  0.0000000  0.0000000     0.2500000  0.2500000  0.2500000
                       0.0000000  0.0000000  0.0000000     0.2500000  0.2500000  0.2500000
                       0.0000000  0.0000000  0.0000000     0.2500000  0.2500000  0.2500000
                       0.0000000  0.0000000  0.0000000     0.2500000  0.2500000  0.2500000
                       0.0000000  0.0000000  0.0000000     0.2500000  0.2500000  0.2500000
                       0.0000000  0.0000000  0.0000000     0.2500000  0.2500000  0.2500000
                       0.0000000  0.0000000  0.0000000     0.2500000  0.2500000  0.2500000
                       0.0000000  0.0000000  0.0000000     0.2500000  0.2500000  0.2500000
                       0.0000000  0.0000000  0.0000000     0.2500000  0.2500000  0.2500000
                       0.0000000  0.0000000  0.0000000     0.2500000  0.2500000  0.2500000
                       0.0000000  0.0000000  0.0000000     0.2500000  0.2500000  0.2500000
                       0.0000000  0.0000000  0.0000000     0.2500000  0.2500000  0.2500000
                       0.0000000  0.0000000  0.0000000     0.2500000  0.2500000  0.2500000
                       0.0000000  0.0000000  0.0000000     0.2500000  0.2500000  0.2500000
                       0.0000000  0.0000000  0.0000000     0.2500000  0.2500000  0.2500000
                       0.0000000  0.0000000  0.0000000     0.2500000  0.2500000  0.2500000
                       0.0000000  0.0000000  0.0000000     0.2500000  0.2500000  0.2500000
                       0.0000000  0.0000000  0.0000000     0.2500000  0.2500000  0.2500000
           toldfe1     1.00000000E-06 Hartree
           toldfe2     0.00000000E+00 Hartree
           tolwfr1     0.00000000E+00
           tolwfr2     1.00000000E-12
            typat      1  1
              wtk1       0.09375    0.09375    0.09375    0.18750    0.09375    0.09375
                         0.09375    0.18750    0.03125    0.03125
              wtk2       1.00000    1.00000    1.00000    1.00000    1.00000    1.00000
                         1.00000    1.00000    1.00000    1.00000    1.00000    1.00000
                         1.00000    1.00000    1.00000    1.00000    1.00000    1.00000
                         1.00000    1.00000    1.00000    1.00000    1.00000    1.00000
                         1.00000    1.00000    1.00000    1.00000    1.00000    1.00000
                         1.00000    1.00000    1.00000    1.00000    1.00000    1.00000
                         1.00000    1.00000    1.00000    1.00000
           xangst      0.0000000000E+00  0.0000000000E+00  0.0000000000E+00
                       1.3361724517E+00  1.3361724517E+00  1.3361724517E+00
            xcart      0.0000000000E+00  0.0000000000E+00  0.0000000000E+00
                       2.5250000000E+00  2.5250000000E+00  2.5250000000E+00
             xred      0.0000000000E+00  0.0000000000E+00  0.0000000000E+00
                       2.5000000000E-01  2.5000000000E-01  2.5000000000E-01
            znucl       14.00000

================================================================================

 chkinp: Checking input parameters for consistency, jdtset=   1.

 chkinp: Checking input parameters for consistency, jdtset=   2.

================================================================================
== DATASET  1 ==================================================================
-   nproc =    1

 Exchange-correlation functional for the present dataset will be:
  LDA: new Teter (4/93) with spin-polarized option - ixc=1
 Citation for XC functional:
  S. Goedecker, M. Teter, J. Huetter, PRB 54, 1703 (1996)

 Real(R)+Recip(G) space primitive vectors, cartesian coordinates (Bohr,Bohr^-1):
 R(1)=  0.0000000  5.0500000  5.0500000  G(1)= -0.0990099  0.0990099  0.0990099
 R(2)=  5.0500000  0.0000000  5.0500000  G(2)=  0.0990099 -0.0990099  0.0990099
 R(3)=  5.0500000  5.0500000  0.0000000  G(3)=  0.0990099  0.0990099 -0.0990099
 Unit cell volume ucvol=  2.5757525E+02 bohr^3
 Angles (23,13,12)=  6.00000000E+01  6.00000000E+01  6.00000000E+01 degrees

 getcut: wavevector=  0.0000  0.0000  0.0000  ngfft=  20  20  20
         ecut(hartree)=      8.000   => boxcut(ratio)=   2.19945

--- Pseudopotential description ------------------------------------------------
- pspini: atom type   1  psp file is 14si.pspnc
- pspatm: opening atomic psp file    14si.pspnc
-  Troullier-Martins psp for element  Si        Thu Oct 27 17:31:21 EDT 1994
- 14.00000   4.00000    940714                znucl, zion, pspdat
    1    1    2    2      2001   0.00000      pspcod,pspxc,lmax,lloc,mmax,r2well
    0   5.907  14.692    1   2.0872718        l,e99.0,e99.9,nproj,rcpsp
   0.00000000   0.00000000   0.00000000   0.00000000     rms, ekb1, ekb2, epsatm
    1   2.617   4.181    1   2.0872718        l,e99.0,e99.9,nproj,rcpsp
   0.00000000   0.00000000   0.00000000   0.00000000     rms, ekb1, ekb2, epsatm
    2   0.000   0.000    0   2.0872718        l,e99.0,e99.9,nproj,rcpsp
   0.00000000   0.00000000   0.00000000   0.00000000     rms, ekb1, ekb2, epsatm
    1.80626423934776    0.22824404341771    1.17378968127746   rchrg,fchrg,qchrg
 pspatm: epsatm=    1.43386982
         --- l  ekb(1:nproj) -->
             0    3.287949
             1    1.849886
 pspatm: atomic psp has been read  and splines computed

   2.29419171E+01                                ecore*ucvol(ha*bohr**3)
--------------------------------------------------------------------------------

P newkpt: treating      5 bands with npw=     289 for ikpt=   1 by node    0
P newkpt: treating      5 bands with npw=     275 for ikpt=   2 by node    0
P newkpt: treating      5 bands with npw=     280 for ikpt=   3 by node    0
P newkpt: treating      5 bands with npw=     277 for ikpt=   4 by node    0
P newkpt: treating      5 bands with npw=     283 for ikpt=   5 by node    0
P newkpt: treating      5 bands with npw=     274 for ikpt=   6 by node    0
P newkpt: treating      5 bands with npw=     276 for ikpt=   7 by node    0
P newkpt: treating      5 bands with npw=     273 for ikpt=   8 by node    0
P newkpt: treating      5 bands with npw=     280 for ikpt=   9 by node    0
P newkpt: treating      5 bands with npw=     281 for ikpt=  10 by node    0

_setup2: Arith. and geom. avg. npw (full set) are     277.875     277.836

================================================================================

     iter   Etot(hartree)      deltaE(h)  residm     vres2
 ETOT  1  -8.8663470217927    -8.866E+00 9.623E-03 6.321E+00
 ETOT  2  -8.8719669698962    -5.620E-03 1.496E-05 1.468E-01
 ETOT  3  -8.8720359751279    -6.901E-05 8.918E-06 3.010E-03
 ETOT  4  -8.8720369096309    -9.345E-07 1.576E-07 1.290E-05
 ETOT  5  -8.8720369150377    -5.407E-09 1.313E-07 1.229E-08

 At SCF step    5, etot is converged : 
  for the second time, diff in etot=  5.407E-09 < toldfe=  1.000E-06

 Cartesian components of stress tensor (hartree/bohr^3)
  sigma(1 1)= -8.90859106E-05  sigma(3 2)=  0.00000000E+00
  sigma(2 2)= -8.90859106E-05  sigma(3 1)=  0.00000000E+00
  sigma(3 3)= -8.90859106E-05  sigma(2 1)=  0.00000000E+00

================================================================================

 ----iterations are completed or convergence reached----

 Mean square residual over all n,k,spin=   2.9995E-09; max=  1.3127E-07
  -0.1250 -0.2500  0.0000    1  1.32724E-10 kpt; spin; max resid(k); each band:
  6.80E-11 1.89E-11 9.78E-13 2.32E-11 1.33E-10
  -0.1250  0.5000  0.0000    1  4.87775E-10 kpt; spin; max resid(k); each band:
  2.17E-11 8.38E-11 2.97E-11 6.27E-13 4.88E-10
  -0.2500 -0.3750  0.0000    1  1.26507E-10 kpt; spin; max resid(k); each band:
  6.99E-11 1.44E-11 2.08E-11 2.32E-12 1.27E-10
  -0.1250 -0.3750  0.1250    1  1.61765E-08 kpt; spin; max resid(k); each band:
  4.79E-11 3.45E-11 3.93E-11 1.27E-11 1.62E-08
  -0.1250  0.2500  0.0000    1  1.69871E-10 kpt; spin; max resid(k); each band:
  3.51E-11 6.57E-11 2.19E-11 1.26E-12 1.70E-10
  -0.2500  0.3750  0.0000    1  7.30199E-11 kpt; spin; max resid(k); each band:
  1.20E-11 7.30E-11 2.75E-11 2.59E-12 7.26E-11
  -0.3750  0.5000  0.0000    1  1.06828E-10 kpt; spin; max resid(k); each band:
  5.06E-11 2.03E-11 7.82E-12 1.75E-12 1.07E-10
  -0.2500  0.5000  0.1250    1  1.70994E-10 kpt; spin; max resid(k); each band:
  2.25E-11 3.34E-11 1.19E-11 3.71E-11 1.71E-10
  -0.1250  0.0000  0.0000    1  1.31275E-07 kpt; spin; max resid(k); each band:
  4.10E-11 2.30E-11 2.74E-12 2.75E-12 1.31E-07
  -0.3750  0.0000  0.0000    1  1.25199E-10 kpt; spin; max resid(k); each band:
  4.76E-11 9.89E-11 8.26E-13 8.25E-13 1.25E-10
 reduced coordinates (array xred) for    2 atoms
       0.000000000000      0.000000000000      0.000000000000
       0.250000000000      0.250000000000      0.250000000000
 rms dE/dt=  0.0000E+00; max dE/dt=  0.0000E+00; dE/dt below (all hartree)
    1       0.000000000000      0.000000000000      0.000000000000
    2       0.000000000000      0.000000000000      0.000000000000

 cartesian coordinates (angstrom) at end:
    1      0.00000000000000     0.00000000000000     0.00000000000000
    2      1.33617245168975     1.33617245168975     1.33617245168975

 cartesian forces (hartree/bohr) at end:
    1     -0.00000000000000    -0.00000000000000    -0.00000000000000
    2     -0.00000000000000    -0.00000000000000    -0.00000000000000
 frms,max,avg= 0.0000000E+00 0.0000000E+00   0.000E+00  0.000E+00  0.000E+00 h/b

 cartesian forces (eV/Angstrom) at end:
    1     -0.00000000000000    -0.00000000000000    -0.00000000000000
    2     -0.00000000000000    -0.00000000000000    -0.00000000000000
 frms,max,avg= 0.0000000E+00 0.0000000E+00   0.000E+00  0.000E+00  0.000E+00 e/A
 length scales= 10.100000000000 10.100000000000 10.100000000000 bohr
              =  5.344689806759  5.344689806759  5.344689806759 angstroms
 prteigrs : about to open file t3xo_comprimido_DS1_EIG
 Fermi (or HOMO) energy (hartree) =   0.21930   Average Vxc (hartree)=  -0.35930
 Eigenvalues (hartree) for nkpt=  10  k points:
 kpt#   1, nband=  5, wtk=  0.09375, kpt= -0.1250 -0.2500  0.0000 (reduced coord)
  -0.19395   0.10958   0.17918   0.18288   0.30754
 kpt#   2, nband=  5, wtk=  0.09375, kpt= -0.1250  0.5000  0.0000 (reduced coord)
  -0.12856  -0.02638   0.14312   0.17025   0.31066
 kpt#   3, nband=  5, wtk=  0.09375, kpt= -0.2500 -0.3750  0.0000 (reduced coord)
  -0.15352   0.04627   0.12680   0.14500   0.27583
 kpt#   4, nband=  5, wtk=  0.18750, kpt= -0.1250 -0.3750  0.1250 (reduced coord)
  -0.13687   0.01051   0.10202   0.15553   0.33499
 kpt#   5, nband=  5, wtk=  0.09375, kpt= -0.1250  0.2500  0.0000 (reduced coord)
  -0.17430   0.05586   0.14106   0.20086   0.33249
 kpt#   6, nband=  5, wtk=  0.09375, kpt= -0.2500  0.3750  0.0000 (reduced coord)
  -0.10923  -0.02013   0.07561   0.15762   0.29454
 kpt#   7, nband=  5, wtk=  0.09375, kpt= -0.3750  0.5000  0.0000 (reduced coord)
  -0.09578  -0.02521   0.09667   0.12681   0.25741
 kpt#   8, nband=  5, wtk=  0.18750, kpt= -0.2500  0.5000  0.1250 (reduced coord)
  -0.08841  -0.02943   0.07216   0.11509   0.31538
 kpt#   9, nband=  5, wtk=  0.03125, kpt= -0.1250  0.0000  0.0000 (reduced coord)
  -0.21460   0.17032   0.21930   0.21930   0.32402
 kpt#  10, nband=  5, wtk=  0.03125, kpt= -0.3750  0.0000  0.0000 (reduced coord)
  -0.15699   0.00435   0.18874   0.18874   0.29381
 Total charge density [el/Bohr^3]
,     Maximum=    8.8246E-02  at reduced coord.    0.1000    0.1000    0.7000
,Next maximum=    8.8246E-02  at reduced coord.    0.1500    0.1500    0.5500
,     Minimum=    3.7932E-03  at reduced coord.    0.5000    0.5000    0.5000
,Next minimum=    3.7932E-03  at reduced coord.    0.7500    0.7500    0.7500
,  Integrated=    8.0000E+00

--------------------------------------------------------------------------------
 Components of total free energy (in Hartree) :

    Kinetic energy  =  3.07094853501616E+00
    Hartree energy  =  5.23302071490960E-01
    XC energy       = -3.55990041035536E+00
    Ewald energy    = -8.53354145606624E+00
    PspCore energy  =  8.90687950108127E-02
    Loc. psp. energy= -2.35916507869302E+00
    NL   psp  energy=  1.89725062855899E+00
    >>>>>>>>> Etotal= -8.87203691503771E+00

 Other information on the energy :
    Total energy(eV)= -2.41420402115181E+02 ; Band energy (Ha)=   3.0714495120E-01
--------------------------------------------------------------------------------

 Cartesian components of stress tensor (hartree/bohr^3)
  sigma(1 1)= -8.90859106E-05  sigma(3 2)=  0.00000000E+00
  sigma(2 2)= -8.90859106E-05  sigma(3 1)=  0.00000000E+00
  sigma(3 3)= -8.90859106E-05  sigma(2 1)=  0.00000000E+00

-Cartesian components of stress tensor (GPa)         [Pressure=  2.6210E+00 GPa]
- sigma(1 1)= -2.62099754E+00  sigma(3 2)=  0.00000000E+00
- sigma(2 2)= -2.62099754E+00  sigma(3 1)=  0.00000000E+00
- sigma(3 3)= -2.62099754E+00  sigma(2 1)=  0.00000000E+00

================================================================================
== DATASET  2 ==================================================================
-   nproc =    1

 mkfilename : getden/=0, take file _DEN from output of DATASET   1.

 Exchange-correlation functional for the present dataset will be:
  LDA: new Teter (4/93) with spin-polarized option - ixc=1
 Citation for XC functional:
  S. Goedecker, M. Teter, J. Huetter, PRB 54, 1703 (1996)

 Real(R)+Recip(G) space primitive vectors, cartesian coordinates (Bohr,Bohr^-1):
 R(1)=  0.0000000  5.0500000  5.0500000  G(1)= -0.0990099  0.0990099  0.0990099
 R(2)=  5.0500000  0.0000000  5.0500000  G(2)=  0.0990099 -0.0990099  0.0990099
 R(3)=  5.0500000  5.0500000  0.0000000  G(3)=  0.0990099  0.0990099 -0.0990099
 Unit cell volume ucvol=  2.5757525E+02 bohr^3
 Angles (23,13,12)=  6.00000000E+01  6.00000000E+01  6.00000000E+01 degrees

 getcut: wavevector=  0.0000  0.0000  0.0000  ngfft=  20  20  20
         ecut(hartree)=      8.000   => boxcut(ratio)=   2.19945
--------------------------------------------------------------------------------

P newkpt: treating      8 bands with npw=     136 for ikpt=   1 by node    0
P newkpt: treating      8 bands with npw=     269 for ikpt=   2 by node    0
P newkpt: treating      8 bands with npw=     281 for ikpt=   3 by node    0
P newkpt: treating      8 bands with npw=     281 for ikpt=   4 by node    0
P newkpt: treating      8 bands with npw=     287 for ikpt=   5 by node    0
P newkpt: treating      8 bands with npw=     289 for ikpt=   6 by node    0
P newkpt: treating      8 bands with npw=     283 for ikpt=   7 by node    0
P newkpt: treating      8 bands with npw=     283 for ikpt=   8 by node    0
P newkpt: treating      8 bands with npw=     280 for ikpt=   9 by node    0
P newkpt: treating      8 bands with npw=     283 for ikpt=  10 by node    0
P newkpt: treating      8 bands with npw=     142 for ikpt=  11 by node    0
P newkpt: treating      8 bands with npw=     283 for ikpt=  12 by node    0
P newkpt: treating      8 bands with npw=     279 for ikpt=  13 by node    0
P newkpt: treating      8 bands with npw=     287 for ikpt=  14 by node    0
P newkpt: treating      8 bands with npw=     291 for ikpt=  15 by node    0
P newkpt: treating      8 bands with npw=     291 for ikpt=  16 by node    0
P newkpt: treating      8 bands with npw=     290 for ikpt=  17 by node    0
P newkpt: treating      8 bands with npw=     290 for ikpt=  18 by node    0
P newkpt: treating      8 bands with npw=     274 for ikpt=  19 by node    0
P newkpt: treating      8 bands with npw=     278 for ikpt=  20 by node    0
P newkpt: treating      8 bands with npw=     278 for ikpt=  21 by node    0
P newkpt: treating      8 bands with npw=     286 for ikpt=  22 by node    0
P newkpt: treating      8 bands with npw=     143 for ikpt=  23 by node    0
P newkpt: treating      8 bands with npw=     276 for ikpt=  24 by node    0
P newkpt: treating      8 bands with npw=     280 for ikpt=  25 by node    0
P newkpt: treating      8 bands with npw=     280 for ikpt=  26 by node    0
P newkpt: treating      8 bands with npw=     276 for ikpt=  27 by node    0
P newkpt: treating      8 bands with npw=     276 for ikpt=  28 by node    0
P newkpt: treating      8 bands with npw=     280 for ikpt=  29 by node    0
P newkpt: treating      8 bands with npw=     280 for ikpt=  30 by node    0
P newkpt: treating      8 bands with npw=     275 for ikpt=  31 by node    0
P newkpt: treating      8 bands with npw=     277 for ikpt=  32 by node    0
P newkpt: treating      8 bands with npw=     281 for ikpt=  33 by node    0
P newkpt: treating      8 bands with npw=     279 for ikpt=  34 by node    0
P newkpt: treating      8 bands with npw=     281 for ikpt=  35 by node    0
P newkpt: treating      8 bands with npw=     285 for ikpt=  36 by node    0
P newkpt: treating      8 bands with npw=     285 for ikpt=  37 by node    0
P newkpt: treating      8 bands with npw=     281 for ikpt=  38 by node    0
P newkpt: treating      8 bands with npw=     283 for ikpt=  39 by node    0
P newkpt: treating      8 bands with npw=     283 for ikpt=  40 by node    0


================================================================================
 prteigrs : about to open file t3xo_comprimido_DS2_EIG
 Non-SCF case, kpt    1 (  0.50000  0.00000  0.00000), residuals and eigenvalues=
  6.18E-14  9.83E-13  2.78E-13  2.04E-13  7.83E-14  4.64E-13  5.48E-13  9.02E-12
 -1.3166E-01 -3.5597E-02  1.8459E-01  1.8459E-01  2.8919E-01  3.5203E-01
  3.5203E-01  5.0947E-01
  prteigrs : nnsclo,ikpt=   10    1 max resid (incl. the buffer)=  9.02129E-12
 Non-SCF case, kpt    2 (  0.45000  0.00000  0.00000), residuals and eigenvalues=
  2.20E-13  1.13E-13  8.82E-14  7.76E-14  5.08E-13  4.67E-13  9.48E-13  1.64E-10
 -1.3707E-01 -2.7818E-02  1.8528E-01  1.8528E-01  2.8995E-01  3.5288E-01
  3.5288E-01  5.1084E-01
  prteigrs : nnsclo,ikpt=   10    2 max resid (incl. the buffer)=  1.63575E-10
 Non-SCF case, kpt    3 (  0.40000  0.00000  0.00000), residuals and eigenvalues=
  3.07E-13  3.63E-13  1.85E-13  2.43E-13  9.53E-13  1.60E-13  7.77E-13  8.50E-08
 -1.4968E-01 -8.2133E-03  1.8722E-01  1.8722E-01  2.9214E-01  3.5502E-01
  3.5502E-01  5.1437E-01
  prteigrs : nnsclo,ikpt=   10    3 max resid (incl. the buffer)=  8.49719E-08
 Non-SCF case, kpt    4 (  0.35000  0.00000  0.00000), residuals and eigenvalues=
  5.66E-13  3.70E-13  8.75E-14  3.22E-13  5.63E-13  8.10E-13  9.33E-13  1.83E-05
 -1.6443E-01  1.8176E-02  1.9059E-01  1.9059E-01  2.9583E-01  3.5801E-01
  3.5801E-01  5.1821E-01
  prteigrs : nnsclo,ikpt=   10    4 max resid (incl. the buffer)=  1.82971E-05
 Non-SCF case, kpt    5 (  0.30000  0.00000  0.00000), residuals and eigenvalues=
  4.02E-13  1.90E-13  1.51E-13  4.76E-13  5.39E-13  4.79E-13  7.92E-13  2.66E-06
 -1.7880E-01  4.8550E-02  1.9526E-01  1.9526E-01  3.0084E-01  3.6026E-01
  3.6026E-01  5.1369E-01
  prteigrs : nnsclo,ikpt=   10    5 max resid (incl. the buffer)=  2.66277E-06
 Non-SCF case, kpt    6 (  0.25000  0.00000  0.00000), residuals and eigenvalues=
  7.26E-13  2.01E-13  8.16E-13  1.77E-13  8.16E-13  8.18E-14  5.52E-13  3.02E-04
 -1.9167E-01  8.1720E-02  2.0116E-01  2.0116E-01  3.0694E-01  3.5969E-01
  3.5969E-01  4.9287E-01
  prteigrs : nnsclo,ikpt=   10    6 max resid (incl. the buffer)=  3.01975E-04
 Non-SCF case, kpt    7 (  0.20000  0.00000  0.00000), residuals and eigenvalues=
  1.41E-13  2.22E-13  6.25E-13  7.00E-13  5.03E-13  7.08E-13  2.41E-12  7.82E-07
 -2.0254E-01  1.1675E-01  2.0807E-01  2.0807E-01  3.1392E-01  3.5477E-01
  3.5477E-01  4.5966E-01
  prteigrs : nnsclo,ikpt=   10    7 max resid (incl. the buffer)=  7.82101E-07
 Non-SCF case, kpt    8 (  0.15000  0.00000  0.00000), residuals and eigenvalues=
  1.98E-13  5.46E-13  9.21E-13  1.36E-13  1.19E-13  3.56E-13  1.10E-12  1.12E-08
 -2.1119E-01  1.5257E-01  2.1556E-01  2.1556E-01  3.2088E-01  3.4577E-01
  3.4577E-01  4.2743E-01
  prteigrs : nnsclo,ikpt=   10    8 max resid (incl. the buffer)=  1.11766E-08
 Non-SCF case, kpt    9 (  0.10000  0.00000  0.00000), residuals and eigenvalues=
  1.44E-13  4.50E-13  5.74E-13  6.53E-13  1.34E-13  7.76E-13  1.92E-13  3.81E-11
 -2.1742E-01  1.8748E-01  2.2282E-01  2.2282E-01  3.2631E-01  3.3546E-01
  3.3546E-01  3.9661E-01
  prteigrs : nnsclo,ikpt=   10    9 max resid (incl. the buffer)=  3.81325E-11
 Non-SCF case, kpt   10 (  0.05000  0.00000  0.00000), residuals and eigenvalues=
  6.42E-14  2.66E-13  2.22E-13  3.11E-13  8.57E-14  2.12E-13  9.28E-13  1.03E-13
 -2.2121E-01  2.1716E-01  2.2840E-01  2.2840E-01  3.2687E-01  3.2725E-01
  3.2725E-01  3.7296E-01
 Non-SCF case, kpt   11 (  0.00000  0.00000  0.00000), residuals and eigenvalues=
  2.75E-13  3.44E-13  5.15E-13  4.14E-13  3.19E-13  3.51E-13  5.68E-14  1.04E-12
 -2.2247E-01  2.3059E-01  2.3059E-01  2.3059E-01  3.2408E-01  3.2408E-01
  3.2408E-01  3.6474E-01
  prteigrs : nnsclo,ikpt=   10   11 max resid (incl. the buffer)=  1.04382E-12
 Non-SCF case, kpt   12 (  0.00000  0.04167  0.04167), residuals and eigenvalues=
  2.09E-13  1.11E-13  9.68E-14  8.05E-13  1.56E-13  3.50E-13  1.68E-13  1.45E-12
 -2.2130E-01  2.2354E-01  2.2559E-01  2.2559E-01  3.2111E-01  3.3050E-01
  3.3050E-01  3.7150E-01
  prteigrs : nnsclo,ikpt=   10   12 max resid (incl. the buffer)=  1.45051E-12
 Non-SCF case, kpt   13 (  0.00000  0.08333  0.08333), residuals and eigenvalues=
  4.76E-13  2.39E-13  1.42E-13  2.60E-13  1.49E-13  6.07E-13  1.56E-12  9.52E-11
 -2.1779E-01  2.0573E-01  2.1359E-01  2.1359E-01  3.1315E-01  3.4676E-01
  3.4676E-01  3.8711E-01
  prteigrs : nnsclo,ikpt=   10   13 max resid (incl. the buffer)=  9.52170E-11
 Non-SCF case, kpt   14 (  0.00000  0.12500  0.12500), residuals and eigenvalues=
  3.50E-13  1.61E-13  2.40E-13  2.02E-13  6.39E-13  3.97E-13  3.66E-13  3.68E-12
 -2.1198E-01  1.8228E-01  1.9887E-01  1.9887E-01  3.0217E-01  3.6831E-01
  3.6831E-01  3.9930E-01
  prteigrs : nnsclo,ikpt=   10   14 max resid (incl. the buffer)=  3.68312E-12
 Non-SCF case, kpt   15 (  0.00000  0.16667  0.16667), residuals and eigenvalues=
  1.72E-13  1.48E-13  7.24E-13  4.26E-13  8.70E-13  5.47E-13  5.88E-13  9.50E-13
 -2.0385E-01  1.5619E-01  1.8397E-01  1.8397E-01  2.8998E-01  3.9082E-01
  3.9285E-01  3.9285E-01
 Non-SCF case, kpt   16 (  0.00000  0.20833  0.20833), residuals and eigenvalues=
  2.04E-13  1.37E-13  5.66E-13  2.36E-13  2.10E-13  7.44E-13  2.78E-11  1.97E-10
 -1.9348E-01  1.2881E-01  1.6985E-01  1.6985E-01  2.7819E-01  3.6782E-01
  4.1915E-01  4.1915E-01
  prteigrs : nnsclo,ikpt=   10   16 max resid (incl. the buffer)=  1.97280E-10
 Non-SCF case, kpt   17 (  0.00000  0.25000  0.25000), residuals and eigenvalues=
  4.06E-13  1.55E-13  2.45E-13  7.92E-13  6.31E-13  1.42E-13  7.34E-11  1.14E-08
 -1.8089E-01  1.0080E-01  1.5712E-01  1.5712E-01  2.6753E-01  3.4266E-01
  4.4657E-01  4.4657E-01
  prteigrs : nnsclo,ikpt=   10   17 max resid (incl. the buffer)=  1.14032E-08
 Non-SCF case, kpt   18 (  0.00000  0.29167  0.29167), residuals and eigenvalues=
  2.75E-13  3.89E-13  4.40E-13  4.26E-13  1.49E-13  6.82E-13  9.39E-11  3.13E-09
 -1.6613E-01  7.2486E-02  1.4607E-01  1.4607E-01  2.5859E-01  3.1909E-01
  4.7477E-01  4.7477E-01
  prteigrs : nnsclo,ikpt=   10   18 max resid (incl. the buffer)=  3.13446E-09
 Non-SCF case, kpt   19 (  0.00000  0.33333  0.33333), residuals and eigenvalues=
  6.53E-13  2.98E-13  4.63E-13  4.24E-13  1.30E-13  3.26E-13  1.69E-10  1.13E-10
 -1.4927E-01  4.4227E-02  1.3695E-01  1.3695E-01  2.5179E-01  2.9869E-01
  5.0407E-01  5.0407E-01
  prteigrs : nnsclo,ikpt=   10   19 max resid (incl. the buffer)=  1.68818E-10
 Non-SCF case, kpt   20 (  0.00000  0.37500  0.37500), residuals and eigenvalues=
  3.85E-14  4.20E-13  1.25E-13  2.51E-13  4.58E-13  1.28E-13  7.43E-09  1.06E-07
 -1.3044E-01  1.6225E-02  1.2969E-01  1.2969E-01  2.4720E-01  2.8133E-01
  5.3338E-01  5.3338E-01
  prteigrs : nnsclo,ikpt=   10   20 max resid (incl. the buffer)=  1.05755E-07
 Non-SCF case, kpt   21 (  0.00000  0.41667  0.41667), residuals and eigenvalues=
  8.22E-14  4.43E-13  1.09E-13  2.09E-13  3.89E-13  4.96E-13  1.40E-08  3.73E-07
 -1.0972E-01 -1.1186E-02  1.2447E-01  1.2447E-01  2.4531E-01  2.6756E-01
  5.6305E-01  5.6305E-01
  prteigrs : nnsclo,ikpt=   10   21 max resid (incl. the buffer)=  3.72670E-07
 Non-SCF case, kpt   22 (  0.00000  0.45833  0.45833), residuals and eigenvalues=
  1.37E-13  1.29E-13  3.35E-13  1.06E-13  1.93E-13  4.08E-13  2.82E-08  1.55E-07
 -8.7262E-02 -3.7775E-02  1.2130E-01  1.2130E-01  2.4608E-01  2.5714E-01
  5.9191E-01  5.9191E-01
  prteigrs : nnsclo,ikpt=   10   22 max resid (incl. the buffer)=  1.55081E-07
 Non-SCF case, kpt   23 (  0.00000  0.50000  0.50000), residuals and eigenvalues=
  3.88E-13  3.35E-13  1.72E-13  1.58E-13  4.32E-13  9.33E-13  2.27E-07  2.45E-06
 -6.3208E-02 -6.3208E-02  1.2027E-01  1.2027E-01  2.4998E-01  2.4998E-01
  6.1067E-01  6.1067E-01
  prteigrs : nnsclo,ikpt=   10   23 max resid (incl. the buffer)=  2.45384E-06
 Non-SCF case, kpt   24 (  0.05882  0.52941  0.52941), residuals and eigenvalues=
  3.40E-13  7.46E-14  2.97E-13  1.67E-13  1.41E-13  2.75E-13  2.38E-06  3.95E-06
 -6.3581E-02 -6.1936E-02  1.1248E-01  1.2124E-01  2.5120E-01  2.6164E-01
  5.9937E-01  6.0397E-01
  prteigrs : nnsclo,ikpt=   10   24 max resid (incl. the buffer)=  3.94560E-06
 Non-SCF case, kpt   25 (  0.11765  0.55882  0.55882), residuals and eigenvalues=
  5.22E-14  2.33E-13  3.70E-13  5.88E-13  4.38E-13  3.93E-13  2.65E-05  2.83E-04
 -6.5143E-02 -5.8233E-02  9.5326E-02  1.2400E-01  2.5443E-01  2.9020E-01
  5.7436E-01  5.8806E-01
  prteigrs : nnsclo,ikpt=   10   25 max resid (incl. the buffer)=  2.83127E-04
 Non-SCF case, kpt   26 (  0.17647  0.58824  0.58824), residuals and eigenvalues=
  9.72E-14  3.03E-13  5.18E-13  7.83E-13  1.34E-13  9.90E-13  1.39E-05  1.29E-04
 -6.8767E-02 -5.2058E-02  7.7670E-02  1.2860E-01  2.5979E-01  3.2782E-01
  5.4605E-01  5.6833E-01
  prteigrs : nnsclo,ikpt=   10   26 max resid (incl. the buffer)=  1.29343E-04
 Non-SCF case, kpt   27 (  0.23529  0.61765  0.61765), residuals and eigenvalues=
  7.70E-13  2.13E-13  3.31E-13  1.84E-13  9.84E-13  4.10E-13  4.07E-06  1.24E-04
 -7.5713E-02 -4.3426E-02  6.4613E-02  1.3493E-01  2.6717E-01  3.7067E-01
  5.1769E-01  5.3941E-01
  prteigrs : nnsclo,ikpt=   10   27 max resid (incl. the buffer)=  1.23951E-04
 Non-SCF case, kpt   28 (  0.29412  0.64706  0.64706), residuals and eigenvalues=
  6.57E-14  2.86E-13  1.86E-13  9.45E-13  7.29E-13  4.67E-13  1.13E-07  1.33E-05
 -8.6713E-02 -3.2357E-02  5.8374E-02  1.4285E-01  2.7643E-01  4.1586E-01
  4.9035E-01  5.1139E-01
  prteigrs : nnsclo,ikpt=   10   28 max resid (incl. the buffer)=  1.32614E-05
 Non-SCF case, kpt   29 (  0.35294  0.67647  0.67647), residuals and eigenvalues=
  3.81E-13  2.20E-13  1.90E-13  8.66E-13  8.69E-13  3.08E-13  1.41E-12  1.79E-06
 -1.0127E-01 -1.8899E-02  5.9160E-02  1.5207E-01  2.8727E-01  4.5608E-01
  4.6464E-01  4.9301E-01
  prteigrs : nnsclo,ikpt=   10   29 max resid (incl. the buffer)=  1.79111E-06
 Non-SCF case, kpt   30 (  0.41176  0.70588  0.70588), residuals and eigenvalues=
  9.83E-13  2.02E-13  1.91E-13  2.96E-13  6.79E-14  5.25E-13  1.05E-10  2.98E-06
 -1.1788E-01 -3.0565E-03  6.5893E-02  1.6247E-01  2.9946E-01  4.4075E-01
  4.5179E-01  4.8325E-01
  prteigrs : nnsclo,ikpt=   10   30 max resid (incl. the buffer)=  2.98284E-06
 Non-SCF case, kpt   31 (  0.47059  0.73529  0.73529), residuals and eigenvalues=
  4.74E-14  8.10E-14  5.53E-13  3.61E-13  2.47E-13  8.67E-13  9.42E-13  8.34E-06
 -1.3511E-01  1.5148E-02  7.7227E-02  1.7361E-01  3.1243E-01  4.1892E-01
  4.3147E-01  4.6689E-01
  prteigrs : nnsclo,ikpt=   10   31 max resid (incl. the buffer)=  8.33700E-06
 Non-SCF case, kpt   32 (  0.52941  0.76471  0.76471), residuals and eigenvalues=
  1.94E-13  2.17E-13  3.40E-13  4.47E-13  8.48E-13  2.72E-13  4.34E-13  2.96E-11
 -1.5190E-01  3.5564E-02  9.2075E-02  1.8497E-01  3.2502E-01  3.9914E-01
  4.1178E-01  4.5375E-01
  prteigrs : nnsclo,ikpt=   10   32 max resid (incl. the buffer)=  2.96437E-11
 Non-SCF case, kpt   33 (  0.58824  0.79412  0.79412), residuals and eigenvalues=
  3.69E-13  7.36E-13  1.34E-13  3.07E-13  3.40E-13  9.68E-13  3.21E-11  1.50E-09
 -1.6755E-01  5.8177E-02  1.0965E-01  1.9593E-01  3.3577E-01  3.8163E-01
  3.9370E-01  4.4506E-01
  prteigrs : nnsclo,ikpt=   10   33 max resid (incl. the buffer)=  1.49705E-09
 Non-SCF case, kpt   34 (  0.64706  0.82353  0.82353), residuals and eigenvalues=
  6.42E-13  6.08E-13  2.28E-13  4.65E-13  5.84E-13  3.63E-13  2.49E-13  6.96E-08
 -1.8162E-01  8.2842E-02  1.2928E-01  2.0596E-01  3.4322E-01  3.6646E-01
  3.7787E-01  4.4154E-01
  prteigrs : nnsclo,ikpt=   10   34 max resid (incl. the buffer)=  6.96344E-08
 Non-SCF case, kpt   35 (  0.70588  0.85294  0.85294), residuals and eigenvalues=
  2.50E-13  9.69E-14  5.56E-13  6.36E-13  9.48E-13  8.94E-13  6.53E-13  4.42E-06
 -1.9384E-01  1.0937E-01  1.5035E-01  2.1442E-01  3.4584E-01  3.5354E-01
  3.6383E-01  4.4126E-01
  prteigrs : nnsclo,ikpt=   10   35 max resid (incl. the buffer)=  4.41651E-06
 Non-SCF case, kpt   36 (  0.76471  0.88235  0.88235), residuals and eigenvalues=
  2.07E-13  1.72E-13  1.80E-13  7.20E-13  4.49E-13  2.75E-13  3.09E-13  9.17E-08
 -2.0402E-01  1.3740E-01  1.7201E-01  2.2095E-01  3.4294E-01  3.4478E-01
  3.5166E-01  4.3708E-01
  prteigrs : nnsclo,ikpt=   10   36 max resid (incl. the buffer)=  9.17389E-08
 Non-SCF case, kpt   37 (  0.82353  0.91176  0.91176), residuals and eigenvalues=
  3.53E-13  6.33E-13  2.22E-13  2.10E-13  4.59E-13  6.60E-13  2.06E-13  1.26E-09
 -2.1203E-01  1.6644E-01  1.9310E-01  2.2559E-01  3.3469E-01  3.4124E-01
  3.4150E-01  4.1945E-01
  prteigrs : nnsclo,ikpt=   10   37 max resid (incl. the buffer)=  1.25943E-09
 Non-SCF case, kpt   38 (  0.88235  0.94118  0.94118), residuals and eigenvalues=
  2.43E-13  1.33E-13  7.96E-13  1.91E-13  2.86E-13  5.03E-13  6.44E-13  1.22E-10
 -2.1780E-01  1.9508E-01  2.1182E-01  2.2854E-01  3.2880E-01  3.3273E-01
  3.3661E-01  3.9335E-01
  prteigrs : nnsclo,ikpt=   10   38 max resid (incl. the buffer)=  1.21788E-10
 Non-SCF case, kpt   39 (  0.94118  0.97059  0.97059), residuals and eigenvalues=
  5.28E-13  6.41E-13  6.94E-13  2.60E-13  8.70E-13  2.24E-13  2.98E-13  5.97E-12
 -2.2131E-01  2.1958E-01  2.2544E-01  2.3010E-01  3.2526E-01  3.2649E-01
  3.2933E-01  3.7214E-01
  prteigrs : nnsclo,ikpt=   10   39 max resid (incl. the buffer)=  5.96601E-12
 Non-SCF case, kpt   40 (  1.00000  1.00000  1.00000), residuals and eigenvalues=
  4.24E-13  3.90E-13  6.19E-13  2.45E-13  2.95E-13  2.74E-13  1.80E-13  6.03E-13
 -2.2247E-01  2.3059E-01  2.3059E-01  2.3059E-01  3.2408E-01  3.2408E-01
  3.2408E-01  3.6474E-01
================================================================================

 ----iterations are completed or convergence reached----

 Mean square residual over all n,k,spin=   2.9549E-06; max=  3.0198E-04
   0.5000  0.0000  0.0000    1  9.02129E-12 kpt; spin; max resid(k); each band:
  6.18E-14 9.83E-13 2.78E-13 2.04E-13 7.83E-14 4.64E-13 5.48E-13 9.02E-12
   0.4500  0.0000  0.0000    1  1.63575E-10 kpt; spin; max resid(k); each band:
  2.20E-13 1.13E-13 8.82E-14 7.76E-14 5.08E-13 4.67E-13 9.48E-13 1.64E-10
   0.4000  0.0000  0.0000    1  8.49719E-08 kpt; spin; max resid(k); each band:
  3.07E-13 3.63E-13 1.85E-13 2.43E-13 9.53E-13 1.60E-13 7.77E-13 8.50E-08
   0.3500  0.0000  0.0000    1  1.82971E-05 kpt; spin; max resid(k); each band:
  5.66E-13 3.70E-13 8.75E-14 3.22E-13 5.63E-13 8.10E-13 9.33E-13 1.83E-05
   0.3000  0.0000  0.0000    1  2.66277E-06 kpt; spin; max resid(k); each band:
  4.02E-13 1.90E-13 1.51E-13 4.76E-13 5.39E-13 4.79E-13 7.92E-13 2.66E-06
   0.2500  0.0000  0.0000    1  3.01975E-04 kpt; spin; max resid(k); each band:
  7.26E-13 2.01E-13 8.16E-13 1.77E-13 8.16E-13 8.18E-14 5.52E-13 3.02E-04
   0.2000  0.0000  0.0000    1  7.82101E-07 kpt; spin; max resid(k); each band:
  1.41E-13 2.22E-13 6.25E-13 7.00E-13 5.03E-13 7.08E-13 2.41E-12 7.82E-07
   0.1500  0.0000  0.0000    1  1.11766E-08 kpt; spin; max resid(k); each band:
  1.98E-13 5.46E-13 9.21E-13 1.36E-13 1.19E-13 3.56E-13 1.10E-12 1.12E-08
   0.1000  0.0000  0.0000    1  3.81325E-11 kpt; spin; max resid(k); each band:
  1.44E-13 4.50E-13 5.74E-13 6.53E-13 1.34E-13 7.76E-13 1.92E-13 3.81E-11
   0.0500  0.0000  0.0000    1  9.28370E-13 kpt; spin; max resid(k); each band:
  6.42E-14 2.66E-13 2.22E-13 3.11E-13 8.57E-14 2.12E-13 9.28E-13 1.03E-13
   0.0000  0.0000  0.0000    1  1.04382E-12 kpt; spin; max resid(k); each band:
  2.75E-13 3.44E-13 5.15E-13 4.14E-13 3.19E-13 3.51E-13 5.68E-14 1.04E-12
   0.0000  0.0417  0.0417    1  1.45051E-12 kpt; spin; max resid(k); each band:
  2.09E-13 1.11E-13 9.68E-14 8.05E-13 1.56E-13 3.50E-13 1.68E-13 1.45E-12
   0.0000  0.0833  0.0833    1  9.52170E-11 kpt; spin; max resid(k); each band:
  4.76E-13 2.39E-13 1.42E-13 2.60E-13 1.49E-13 6.07E-13 1.56E-12 9.52E-11
   0.0000  0.1250  0.1250    1  3.68312E-12 kpt; spin; max resid(k); each band:
  3.50E-13 1.61E-13 2.40E-13 2.02E-13 6.39E-13 3.97E-13 3.66E-13 3.68E-12
   0.0000  0.1667  0.1667    1  9.50203E-13 kpt; spin; max resid(k); each band:
  1.72E-13 1.48E-13 7.24E-13 4.26E-13 8.70E-13 5.47E-13 5.88E-13 9.50E-13
   0.0000  0.2083  0.2083    1  1.97280E-10 kpt; spin; max resid(k); each band:
  2.04E-13 1.37E-13 5.66E-13 2.36E-13 2.10E-13 7.44E-13 2.78E-11 1.97E-10
   0.0000  0.2500  0.2500    1  1.14032E-08 kpt; spin; max resid(k); each band:
  4.06E-13 1.55E-13 2.45E-13 7.92E-13 6.31E-13 1.42E-13 7.34E-11 1.14E-08
   0.0000  0.2917  0.2917    1  3.13446E-09 kpt; spin; max resid(k); each band:
  2.75E-13 3.89E-13 4.40E-13 4.26E-13 1.49E-13 6.82E-13 9.39E-11 3.13E-09
   0.0000  0.3333  0.3333    1  1.68818E-10 kpt; spin; max resid(k); each band:
  6.53E-13 2.98E-13 4.63E-13 4.24E-13 1.30E-13 3.26E-13 1.69E-10 1.13E-10
   0.0000  0.3750  0.3750    1  1.05755E-07 kpt; spin; max resid(k); each band:
  3.85E-14 4.20E-13 1.25E-13 2.51E-13 4.58E-13 1.28E-13 7.43E-09 1.06E-07
   0.0000  0.4167  0.4167    1  3.72670E-07 kpt; spin; max resid(k); each band:
  8.22E-14 4.43E-13 1.09E-13 2.09E-13 3.89E-13 4.96E-13 1.40E-08 3.73E-07
   0.0000  0.4583  0.4583    1  1.55081E-07 kpt; spin; max resid(k); each band:
  1.37E-13 1.29E-13 3.35E-13 1.06E-13 1.93E-13 4.08E-13 2.82E-08 1.55E-07
   0.0000  0.5000  0.5000    1  2.45384E-06 kpt; spin; max resid(k); each band:
  3.88E-13 3.35E-13 1.72E-13 1.58E-13 4.32E-13 9.33E-13 2.27E-07 2.45E-06
   0.0588  0.5294  0.5294    1  3.94560E-06 kpt; spin; max resid(k); each band:
  3.40E-13 7.46E-14 2.97E-13 1.67E-13 1.41E-13 2.75E-13 2.38E-06 3.95E-06
   0.1176  0.5588  0.5588    1  2.83127E-04 kpt; spin; max resid(k); each band:
  5.22E-14 2.33E-13 3.70E-13 5.88E-13 4.38E-13 3.93E-13 2.65E-05 2.83E-04
   0.1765  0.5882  0.5882    1  1.29343E-04 kpt; spin; max resid(k); each band:
  9.72E-14 3.03E-13 5.18E-13 7.83E-13 1.34E-13 9.90E-13 1.39E-05 1.29E-04
   0.2353  0.6176  0.6176    1  1.23951E-04 kpt; spin; max resid(k); each band:
  7.70E-13 2.13E-13 3.31E-13 1.84E-13 9.84E-13 4.10E-13 4.07E-06 1.24E-04
   0.2941  0.6471  0.6471    1  1.32614E-05 kpt; spin; max resid(k); each band:
  6.57E-14 2.86E-13 1.86E-13 9.45E-13 7.29E-13 4.67E-13 1.13E-07 1.33E-05
   0.3529  0.6765  0.6765    1  1.79111E-06 kpt; spin; max resid(k); each band:
  3.81E-13 2.20E-13 1.90E-13 8.66E-13 8.69E-13 3.08E-13 1.41E-12 1.79E-06
   0.4118  0.7059  0.7059    1  2.98284E-06 kpt; spin; max resid(k); each band:
  9.83E-13 2.02E-13 1.91E-13 2.96E-13 6.79E-14 5.25E-13 1.05E-10 2.98E-06
   0.4706  0.7353  0.7353    1  8.33700E-06 kpt; spin; max resid(k); each band:
  4.74E-14 8.10E-14 5.53E-13 3.61E-13 2.47E-13 8.67E-13 9.42E-13 8.34E-06
   0.5294  0.7647  0.7647    1  2.96437E-11 kpt; spin; max resid(k); each band:
  1.94E-13 2.17E-13 3.40E-13 4.47E-13 8.48E-13 2.72E-13 4.34E-13 2.96E-11
   0.5882  0.7941  0.7941    1  1.49705E-09 kpt; spin; max resid(k); each band:
  3.69E-13 7.36E-13 1.34E-13 3.07E-13 3.40E-13 9.68E-13 3.21E-11 1.50E-09
   0.6471  0.8235  0.8235    1  6.96344E-08 kpt; spin; max resid(k); each band:
  6.42E-13 6.08E-13 2.28E-13 4.65E-13 5.84E-13 3.63E-13 2.49E-13 6.96E-08
   0.7059  0.8529  0.8529    1  4.41651E-06 kpt; spin; max resid(k); each band:
  2.50E-13 9.69E-14 5.56E-13 6.36E-13 9.48E-13 8.94E-13 6.53E-13 4.42E-06
   0.7647  0.8824  0.8824    1  9.17389E-08 kpt; spin; max resid(k); each band:
  2.07E-13 1.72E-13 1.80E-13 7.20E-13 4.49E-13 2.75E-13 3.09E-13 9.17E-08
   0.8235  0.9118  0.9118    1  1.25943E-09 kpt; spin; max resid(k); each band:
  3.53E-13 6.33E-13 2.22E-13 2.10E-13 4.59E-13 6.60E-13 2.06E-13 1.26E-09
   0.8824  0.9412  0.9412    1  1.21788E-10 kpt; spin; max resid(k); each band:
  2.43E-13 1.33E-13 7.96E-13 1.91E-13 2.86E-13 5.03E-13 6.44E-13 1.22E-10
   0.9412  0.9706  0.9706    1  5.96601E-12 kpt; spin; max resid(k); each band:
  5.28E-13 6.41E-13 6.94E-13 2.60E-13 8.70E-13 2.24E-13 2.98E-13 5.97E-12
   1.0000  1.0000  1.0000    1  6.19023E-13 kpt; spin; max resid(k); each band:
  4.24E-13 3.90E-13 6.19E-13 2.45E-13 2.95E-13 2.74E-13 1.80E-13 6.03E-13
 reduced coordinates (array xred) for    2 atoms
       0.000000000000      0.000000000000      0.000000000000
       0.250000000000      0.250000000000      0.250000000000

 cartesian coordinates (angstrom) at end:
    1      0.00000000000000     0.00000000000000     0.00000000000000
    2      1.33617245168975     1.33617245168975     1.33617245168975
 length scales= 10.100000000000 10.100000000000 10.100000000000 bohr
              =  5.344689806759  5.344689806759  5.344689806759 angstroms
 prteigrs : about to open file t3xo_comprimido_DS2_EIG
 Eigenvalues (   eV  ) for nkpt=  40  k points:
 kpt#   1, nband=  8, wtk=  1.00000, kpt=  0.5000  0.0000  0.0000 (reduced coord)
  -3.58253  -0.96865   5.02295   5.02295   7.86917   9.57927   9.57927  13.86346
 kpt#   2, nband=  8, wtk=  1.00000, kpt=  0.4500  0.0000  0.0000 (reduced coord)
  -3.72974  -0.75698   5.04181   5.04181   7.88988   9.60223   9.60223  13.90062
 kpt#   3, nband=  8, wtk=  1.00000, kpt=  0.4000  0.0000  0.0000 (reduced coord)
  -4.07293  -0.22350   5.09460   5.09460   7.94945   9.66055   9.66055  13.99669
 kpt#   4, nband=  8, wtk=  1.00000, kpt=  0.3500  0.0000  0.0000 (reduced coord)
  -4.47443   0.49459   5.18614   5.18614   8.04981   9.74198   9.74198  14.10122
 kpt#   5, nband=  8, wtk=  1.00000, kpt=  0.3000  0.0000  0.0000 (reduced coord)
  -4.86532   1.32111   5.31338   5.31338   8.18618   9.80311   9.80311  13.97828
 kpt#   6, nband=  8, wtk=  1.00000, kpt=  0.2500  0.0000  0.0000 (reduced coord)
  -5.21554   2.22371   5.47373   5.47373   8.35219   9.78758   9.78758  13.41180
 kpt#   7, nband=  8, wtk=  1.00000, kpt=  0.2000  0.0000  0.0000 (reduced coord)
  -5.51140   3.17689   5.66192   5.66192   8.54217   9.65391   9.65391  12.50807
 kpt#   8, nband=  8, wtk=  1.00000, kpt=  0.1500  0.0000  0.0000 (reduced coord)
  -5.74665   4.15165   5.86574   5.86574   8.73161   9.40881   9.40881  11.63090
 kpt#   9, nband=  8, wtk=  1.00000, kpt=  0.1000  0.0000  0.0000 (reduced coord)
  -5.91623   5.10147   6.06337   6.06337   8.87926   9.12831   9.12831  10.79220
 kpt#  10, nband=  8, wtk=  1.00000, kpt=  0.0500  0.0000  0.0000 (reduced coord)
  -6.01945   5.90920   6.21522   6.21522   8.89467   8.90489   8.90489  10.14863
 kpt#  11, nband=  8, wtk=  1.00000, kpt=  0.0000  0.0000  0.0000 (reduced coord)
  -6.05376   6.27475   6.27475   6.27475   8.81857   8.81857   8.81857   9.92505
 kpt#  12, nband=  8, wtk=  1.00000, kpt=  0.0000  0.0417  0.0417 (reduced coord)
  -6.02198   6.08291   6.13856   6.13856   8.73778   8.99332   8.99332  10.10907
 kpt#  13, nband=  8, wtk=  1.00000, kpt=  0.0000  0.0833  0.0833 (reduced coord)
  -5.92637   5.59828   5.81212   5.81212   8.52128   9.43593   9.43593  10.53388
 kpt#  14, nband=  8, wtk=  1.00000, kpt=  0.0000  0.1250  0.1250 (reduced coord)
  -5.76826   4.96018   5.41152   5.41152   8.22248  10.02231  10.02231  10.86552
 kpt#  15, nband=  8, wtk=  1.00000, kpt=  0.0000  0.1667  0.1667 (reduced coord)
  -5.54714   4.25002   5.00604   5.00604   7.89081  10.63467  10.68995  10.68995
 kpt#  16, nband=  8, wtk=  1.00000, kpt=  0.0000  0.2083  0.2083 (reduced coord)
  -5.26489   3.50521   4.62191   4.62191   7.56987  10.00886  11.40573  11.40573
 kpt#  17, nband=  8, wtk=  1.00000, kpt=  0.0000  0.2500  0.2500 (reduced coord)
  -4.92224   2.74277   4.27546   4.27546   7.27995   9.32424  12.15178  12.15178
 kpt#  18, nband=  8, wtk=  1.00000, kpt=  0.0000  0.2917  0.2917 (reduced coord)
  -4.52075   1.97244   3.97471   3.97471   7.03653   8.68301  12.91914  12.91914
 kpt#  19, nband=  8, wtk=  1.00000, kpt=  0.0000  0.3333  0.3333 (reduced coord)
  -4.06195   1.20347   3.72664   3.72664   6.85157   8.12789  13.71657  13.71657
 kpt#  20, nband=  8, wtk=  1.00000, kpt=  0.0000  0.3750  0.3750 (reduced coord)
  -3.54940   0.44150   3.52901   3.52901   6.72653   7.65545  14.51407  14.51408
 kpt#  21, nband=  8, wtk=  1.00000, kpt=  0.0000  0.4167  0.4167 (reduced coord)
  -2.98555  -0.30438   3.38691   3.38691   6.67513   7.28078  15.32131  15.32131
 kpt#  22, nband=  8, wtk=  1.00000, kpt=  0.0000  0.4583  0.4583 (reduced coord)
  -2.37452  -1.02792   3.30066   3.30066   6.69625   6.99701  16.10673  16.10673
 kpt#  23, nband=  8, wtk=  1.00000, kpt=  0.0000  0.5000  0.5000 (reduced coord)
  -1.71998  -1.71998   3.27259   3.27259   6.80228   6.80228  16.61708  16.61712
 kpt#  24, nband=  8, wtk=  1.00000, kpt=  0.0588  0.5294  0.5294 (reduced coord)
  -1.73012  -1.68538   3.06079   3.29916   6.83537   7.11955  16.30965  16.43494
 kpt#  25, nband=  8, wtk=  1.00000, kpt=  0.1176  0.5588  0.5588 (reduced coord)
  -1.77263  -1.58460   2.59396   3.37415   6.92344   7.89679  15.62917  16.00195
 kpt#  26, nband=  8, wtk=  1.00000, kpt=  0.1765  0.5882  0.5882 (reduced coord)
  -1.87125  -1.41656   2.11350   3.49941   7.06914   8.92043  14.85884  15.46507
 kpt#  27, nband=  8, wtk=  1.00000, kpt=  0.2353  0.6176  0.6176 (reduced coord)
  -2.06025  -1.18168   1.75821   3.67166   7.26994  10.08640  14.08697  14.67803
 kpt#  28, nband=  8, wtk=  1.00000, kpt=  0.2941  0.6471  0.6471 (reduced coord)
  -2.35958  -0.88049   1.58843   3.88710   7.52193  11.31610  13.34300  13.91559
 kpt#  29, nband=  8, wtk=  1.00000, kpt=  0.3529  0.6765  0.6765 (reduced coord)
  -2.75561  -0.51427   1.60983   4.13813   7.81700  12.41068  12.64345  13.41544
 kpt#  30, nband=  8, wtk=  1.00000, kpt=  0.4118  0.7059  0.7059 (reduced coord)
  -3.20761  -0.08317   1.79304   4.42116   8.14871  11.99344  12.29379  13.14991
 kpt#  31, nband=  8, wtk=  1.00000, kpt=  0.4706  0.7353  0.7353 (reduced coord)
  -3.67644   0.41221   2.10145   4.72406   8.50168  11.39948  11.74102  12.70470
 kpt#  32, nband=  8, wtk=  1.00000, kpt=  0.5294  0.7647  0.7647 (reduced coord)
  -4.13338   0.96776   2.50548   5.03338   8.84434  10.86111  11.20508  12.34730
 kpt#  33, nband=  8, wtk=  1.00000, kpt=  0.5882  0.7941  0.7941 (reduced coord)
  -4.55925   1.58308   2.98376   5.33166   9.13667  10.38455  10.71312  12.11073
 kpt#  34, nband=  8, wtk=  1.00000, kpt=  0.6471  0.8235  0.8235 (reduced coord)
  -4.94226   2.25425   3.51796   5.60437   9.33937   9.97195  10.28246  12.01494
 kpt#  35, nband=  8, wtk=  1.00000, kpt=  0.7059  0.8529  0.8529 (reduced coord)
  -5.27452   2.97624   4.09125   5.83454   9.41081   9.62031   9.90020  12.00734
 kpt#  36, nband=  8, wtk=  1.00000, kpt=  0.7647  0.8824  0.8824 (reduced coord)
  -5.55177   3.73897   4.68064   6.01229   9.33195   9.38199   9.56911  11.89343
 kpt#  37, nband=  8, wtk=  1.00000, kpt=  0.8235  0.9118  0.9118 (reduced coord)
  -5.76964   4.52918   5.25459   6.13850   9.10738   9.28568   9.29260  11.41385
 kpt#  38, nband=  8, wtk=  1.00000, kpt=  0.8824  0.9412  0.9412 (reduced coord)
  -5.92674   5.30850   5.76403   6.21881   8.94717   9.05411   9.15952  10.70366
 kpt#  39, nband=  8, wtk=  1.00000, kpt=  0.9412  0.9706  0.9706 (reduced coord)
  -6.02210   5.97499   6.13443   6.26123   8.85078   8.88427   8.96156  10.12636
 kpt#  40, nband=  8, wtk=  1.00000, kpt=  1.0000  1.0000  1.0000 (reduced coord)
  -6.05376   6.27475   6.27475   6.27475   8.81857   8.81857   8.81857   9.92505
 Total charge density [el/Bohr^3]
,     Maximum=    8.8246E-02  at reduced coord.    0.1000    0.1000    0.7000
,Next maximum=    8.8246E-02  at reduced coord.    0.1500    0.1500    0.5500
,     Minimum=    3.7932E-03  at reduced coord.    0.5000    0.5000    0.5000
,Next minimum=    3.7932E-03  at reduced coord.    0.7500    0.7500    0.7500
,  Integrated=    8.0000E+00

== END DATASET(S) ==============================================================
================================================================================
  
 -outvars: echo values of variables after computation  --------
            acell      1.0100000000E+01  1.0100000000E+01  1.0100000000E+01 Bohr
              amu      2.80855000E+01
           diemac      1.20000000E+01
             ecut      8.00000000E+00 Hartree
           enunit1          0
           enunit2          1
           etotal1    -8.8720369150E+00
            fcart1    -0.0000000000E+00 -0.0000000000E+00 -0.0000000000E+00
                      -0.0000000000E+00 -0.0000000000E+00 -0.0000000000E+00
-          fftalg         112
           getden1          0
           getden2         -1
             iscf1          7
             iscf2         -2
           istwfk2       3    0    0    0    0    0    0    0    0    0
                         2    0    0    0    0    0    0    0    0    0
                         0    0    8    0    0    0    0    0    0    0
                         0    0    0    0    0    0    0    0    0    0
           jdtset        1    2
              kpt1    -1.25000000E-01 -2.50000000E-01  0.00000000E+00
                      -1.25000000E-01  5.00000000E-01  0.00000000E+00
                      -2.50000000E-01 -3.75000000E-01  0.00000000E+00
                      -1.25000000E-01 -3.75000000E-01  1.25000000E-01
                      -1.25000000E-01  2.50000000E-01  0.00000000E+00
                      -2.50000000E-01  3.75000000E-01  0.00000000E+00
                      -3.75000000E-01  5.00000000E-01  0.00000000E+00
                      -2.50000000E-01  5.00000000E-01  1.25000000E-01
                      -1.25000000E-01  0.00000000E+00  0.00000000E+00
                      -3.75000000E-01  0.00000000E+00  0.00000000E+00
              kpt2     5.00000000E-01  0.00000000E+00  0.00000000E+00
                       4.50000000E-01  0.00000000E+00  0.00000000E+00
                       4.00000000E-01  0.00000000E+00  0.00000000E+00
                       3.50000000E-01  0.00000000E+00  0.00000000E+00
                       3.00000000E-01  0.00000000E+00  0.00000000E+00
                       2.50000000E-01  0.00000000E+00  0.00000000E+00
                       2.00000000E-01  0.00000000E+00  0.00000000E+00
                       1.50000000E-01  0.00000000E+00  0.00000000E+00
                       1.00000000E-01  0.00000000E+00  0.00000000E+00
                       5.00000000E-02  0.00000000E+00  0.00000000E+00
                       0.00000000E+00  0.00000000E+00  0.00000000E+00
                       0.00000000E+00  4.16666667E-02  4.16666667E-02
                       0.00000000E+00  8.33333333E-02  8.33333333E-02
                       0.00000000E+00  1.25000000E-01  1.25000000E-01
                       0.00000000E+00  1.66666667E-01  1.66666667E-01
                       0.00000000E+00  2.08333333E-01  2.08333333E-01
                       0.00000000E+00  2.50000000E-01  2.50000000E-01
                       0.00000000E+00  2.91666667E-01  2.91666667E-01
                       0.00000000E+00  3.33333333E-01  3.33333333E-01
                       0.00000000E+00  3.75000000E-01  3.75000000E-01
                       0.00000000E+00  4.16666667E-01  4.16666667E-01
                       0.00000000E+00  4.58333333E-01  4.58333333E-01
                       0.00000000E+00  5.00000000E-01  5.00000000E-01
                       5.88235294E-02  5.29411765E-01  5.29411765E-01
                       1.17647059E-01  5.58823529E-01  5.58823529E-01
                       1.76470588E-01  5.88235294E-01  5.88235294E-01
                       2.35294118E-01  6.17647059E-01  6.17647059E-01
                       2.94117647E-01  6.47058824E-01  6.47058824E-01
                       3.52941176E-01  6.76470588E-01  6.76470588E-01
                       4.11764706E-01  7.05882353E-01  7.05882353E-01
                       4.70588235E-01  7.35294118E-01  7.35294118E-01
                       5.29411765E-01  7.64705882E-01  7.64705882E-01
                       5.88235294E-01  7.94117647E-01  7.94117647E-01
                       6.47058824E-01  8.23529412E-01  8.23529412E-01
                       7.05882353E-01  8.52941176E-01  8.52941176E-01
                       7.64705882E-01  8.82352941E-01  8.82352941E-01
                       8.23529412E-01  9.11764706E-01  9.11764706E-01
                       8.82352941E-01  9.41176471E-01  9.41176471E-01
                       9.41176471E-01  9.70588235E-01  9.70588235E-01
                       1.00000000E+00  1.00000000E+00  1.00000000E+00
           kptopt1          1
           kptopt2         -3
         kptrlatt        4   -4    4     -4    4    4     -4   -4    4
          kptrlen1     4.04000000E+01
          kptrlen2     3.00000000E+01
P           mkmem1         10
P           mkmem2         40
            natom           2
            nband1          5
            nband2          8
           nbdbuf1          0
           nbdbuf2          2
           ndtset           2
            ngfft          20      20      20
             nkpt1         10
             nkpt2         40
            nstep          10
             nsym          48
           ntypat           1
              occ      2.000000  2.000000  2.000000  2.000000  0.000000
            rprim      0.0000000000E+00  5.0000000000E-01  5.0000000000E-01
                       5.0000000000E-01  0.0000000000E+00  5.0000000000E-01
                       5.0000000000E-01  5.0000000000E-01  0.0000000000E+00
           shiftk      5.00000000E-01  5.00000000E-01  5.00000000E-01
          spgroup         227
           strten1    -8.9085910552E-05 -8.9085910552E-05 -8.9085910552E-05
                       0.0000000000E+00  0.0000000000E+00  0.0000000000E+00
           symrel      1  0  0   0  1  0   0  0  1      -1  0  0   0 -1  0   0  0 -1
                       0 -1  1   0 -1  0   1 -1  0       0  1 -1   0  1  0  -1  1  0
                      -1  0  0  -1  0  1  -1  1  0       1  0  0   1  0 -1   1 -1  0
                       0  1 -1   1  0 -1   0  0 -1       0 -1  1  -1  0  1   0  0  1
                      -1  0  0  -1  1  0  -1  0  1       1  0  0   1 -1  0   1  0 -1
                       0 -1  1   1 -1  0   0 -1  0       0  1 -1  -1  1  0   0  1  0
                       1  0  0   0  0  1   0  1  0      -1  0  0   0  0 -1   0 -1  0
                       0  1 -1   0  0 -1   1  0 -1       0 -1  1   0  0  1  -1  0  1
                      -1  0  1  -1  1  0  -1  0  0       1  0 -1   1 -1  0   1  0  0
                       0 -1  0   1 -1  0   0 -1  1       0  1  0  -1  1  0   0  1 -1
                       1  0 -1   0  0 -1   0  1 -1      -1  0  1   0  0  1   0 -1  1
                       0  1  0   0  0  1   1  0  0       0 -1  0   0  0 -1  -1  0  0
                       1  0 -1   0  1 -1   0  0 -1      -1  0  1   0 -1  1   0  0  1
                       0 -1  0   0 -1  1   1 -1  0       0  1  0   0  1 -1  -1  1  0
                      -1  0  1  -1  0  0  -1  1  0       1  0 -1   1  0  0   1 -1  0
                       0  1  0   1  0  0   0  0  1       0 -1  0  -1  0  0   0  0 -1
                       0  0 -1   0  1 -1   1  0 -1       0  0  1   0 -1  1  -1  0  1
                       1 -1  0   0 -1  1   0 -1  0      -1  1  0   0  1 -1   0  1  0
                       0  0  1   1  0  0   0  1  0       0  0 -1  -1  0  0   0 -1  0
                      -1  1  0  -1  0  0  -1  0  1       1 -1  0   1  0  0   1  0 -1
                       0  0  1   0  1  0   1  0  0       0  0 -1   0 -1  0  -1  0  0
                       1 -1  0   0 -1  0   0 -1  1      -1  1  0   0  1  0   0  1 -1
                       0  0 -1   1  0 -1   0  1 -1       0  0  1  -1  0  1   0 -1  1
                      -1  1  0  -1  0  1  -1  0  0       1 -1  0   1  0 -1   1  0  0
            tnons      0.0000000  0.0000000  0.0000000     0.2500000  0.2500000  0.2500000
                       0.0000000  0.0000000  0.0000000     0.2500000  0.2500000  0.2500000
                       0.0000000  0.0000000  0.0000000     0.2500000  0.2500000  0.2500000
                       0.0000000  0.0000000  0.0000000     0.2500000  0.2500000  0.2500000
                       0.0000000  0.0000000  0.0000000     0.2500000  0.2500000  0.2500000
                       0.0000000  0.0000000  0.0000000     0.2500000  0.2500000  0.2500000
                       0.0000000  0.0000000  0.0000000     0.2500000  0.2500000  0.2500000
                       0.0000000  0.0000000  0.0000000     0.2500000  0.2500000  0.2500000
                       0.0000000  0.0000000  0.0000000     0.2500000  0.2500000  0.2500000
                       0.0000000  0.0000000  0.0000000     0.2500000  0.2500000  0.2500000
                       0.0000000  0.0000000  0.0000000     0.2500000  0.2500000  0.2500000
                       0.0000000  0.0000000  0.0000000     0.2500000  0.2500000  0.2500000
                       0.0000000  0.0000000  0.0000000     0.2500000  0.2500000  0.2500000
                       0.0000000  0.0000000  0.0000000     0.2500000  0.2500000  0.2500000
                       0.0000000  0.0000000  0.0000000     0.2500000  0.2500000  0.2500000
                       0.0000000  0.0000000  0.0000000     0.2500000  0.2500000  0.2500000
                       0.0000000  0.0000000  0.0000000     0.2500000  0.2500000  0.2500000
                       0.0000000  0.0000000  0.0000000     0.2500000  0.2500000  0.2500000
                       0.0000000  0.0000000  0.0000000     0.2500000  0.2500000  0.2500000
                       0.0000000  0.0000000  0.0000000     0.2500000  0.2500000  0.2500000
                       0.0000000  0.0000000  0.0000000     0.2500000  0.2500000  0.2500000
                       0.0000000  0.0000000  0.0000000     0.2500000  0.2500000  0.2500000
                       0.0000000  0.0000000  0.0000000     0.2500000  0.2500000  0.2500000
                       0.0000000  0.0000000  0.0000000     0.2500000  0.2500000  0.2500000
           toldfe1     1.00000000E-06 Hartree
           toldfe2     0.00000000E+00 Hartree
           tolwfr1     0.00000000E+00
           tolwfr2     1.00000000E-12
            typat      1  1
              wtk1       0.09375    0.09375    0.09375    0.18750    0.09375    0.09375
                         0.09375    0.18750    0.03125    0.03125
              wtk2       1.00000    1.00000    1.00000    1.00000    1.00000    1.00000
                         1.00000    1.00000    1.00000    1.00000    1.00000    1.00000
                         1.00000    1.00000    1.00000    1.00000    1.00000    1.00000
                         1.00000    1.00000    1.00000    1.00000    1.00000    1.00000
                         1.00000    1.00000    1.00000    1.00000    1.00000    1.00000
                         1.00000    1.00000    1.00000    1.00000    1.00000    1.00000
                         1.00000    1.00000    1.00000    1.00000
           xangst      0.0000000000E+00  0.0000000000E+00  0.0000000000E+00
                       1.3361724517E+00  1.3361724517E+00  1.3361724517E+00
            xcart      0.0000000000E+00  0.0000000000E+00  0.0000000000E+00
                       2.5250000000E+00  2.5250000000E+00  2.5250000000E+00
             xred      0.0000000000E+00  0.0000000000E+00  0.0000000000E+00
                       2.5000000000E-01  2.5000000000E-01  2.5000000000E-01
            znucl       14.00000

================================================================================

- Total cpu        time (s,m,h):          2.1        0.04      0.001
- Total wall clock time (s,m,h):          2.1        0.04      0.001
-
- For major independent code sections, cpu and wall times (sec),
-  as well as % of the time and number of calls for node 0-
-<BEGIN_TIMER mpi_nprocs = 1, omp_nthreads = 1, mpi_rank = 0>
- cpu_time =            2.1, wall_time =            2.1
-
- routine                        cpu     %       wall     %      number of calls  Gflops 
-                                                                  (-1=no count)
- fourwf%(pot)                   1.184  56.1      1.070  50.0           9283      -1.00    
- invars2                        0.164   7.8      0.166   7.8              2      -1.00    
- timing timab                   0.124   5.9      0.127   5.9             11      -1.00    
- projbd                         0.096   4.5      0.100   4.7          14314      -1.00    
- pspini                         0.084   4.0      0.087   4.1              2      -1.00    
- nonlop(apply)                  0.072   3.4      0.119   5.6           9283      -1.00    
- abinit(2)                      0.068   3.2      0.069   3.2              1      -1.00    
- getghc-other                   0.044   2.1      0.060   2.8             -1      -1.00    
- vtowfk(ssdiag)                 0.036   1.7      0.046   2.1             -1      -1.00    
- fourwf%(den)                   0.008   0.4      0.014   0.7            200      -1.00    
- others (94)                    0.044   2.1      0.035   1.6             -1      -1.00    
-<END_TIMER>
-
- subtotal                       1.924  91.1      1.893  88.5

- For major independent code sections, cpu and wall times (sec),
- as well as % of the total time and number of calls 

-<BEGIN_TIMER mpi_nprocs = 1, omp_nthreads = 1, mpi_rank = world>
- cpu_time =           2.1, wall_time =           2.1
-
- routine                         cpu     %       wall     %      number of calls Gflops 
-                                                                  (-1=no count)
- fourwf%(pot)                   1.184  56.1      1.070  50.0           9283      -1.00    
- invars2                        0.164   7.8      0.166   7.8              2      -1.00    
- timing timab                   0.124   5.9      0.127   5.9             11      -1.00    
- projbd                         0.096   4.5      0.100   4.7          14314      -1.00    
- pspini                         0.084   4.0      0.087   4.1              2      -1.00    
- nonlop(apply)                  0.072   3.4      0.119   5.6           9283      -1.00    
- abinit(2)                      0.068   3.2      0.069   3.2              1      -1.00    
- getghc-other                   0.044   2.1      0.060   2.8             -1      -1.00    
- vtowfk(ssdiag)                 0.036   1.7      0.046   2.1             -1      -1.00    
- fourwf%(den)                   0.008   0.4      0.014   0.7            200      -1.00    
- others (94)                    0.044   2.1      0.035   1.6             -1      -1.00    
-<END_TIMER>

- subtotal                       1.924  91.1      1.893  88.5

================================================================================

 Suggested references for the acknowledgment of ABINIT usage.

 The users of ABINIT have little formal obligations with respect to the ABINIT group
 (those specified in the GNU General Public License, http://www.gnu.org/copyleft/gpl.txt).
 However, it is common practice in the scientific literature,
 to acknowledge the efforts of people that have made the research possible.
 In this spirit, please find below suggested citations of work written by ABINIT developers,
 corresponding to implementations inside of ABINIT that you have used in the present run.
 Note also that it will be of great value to readers of publications presenting these results,
 to read papers enabling them to understand the theoretical formalism and details
 of the ABINIT implementation.
 For information on why they are suggested, see also http://www.abinit.org/about/?text=acknowledgments.

 [1] ABINIT : First-principles approach of materials and nanosystem properties.
 X. Gonze, B. Amadon, P.-M. Anglade, J.-M. Beuken, F. Bottin, P. Boulanger, F. Bruneval,
 D. Caliste, R. Caracas, M. Cote, T. Deutsch, L. Genovese, Ph. Ghosez, M. Giantomassi
 S. Goedecker, D.R. Hamann, P. Hermet, F. Jollet, G. Jomard, S. Leroux, M. Mancini, S. Mazevet,
 M.J.T. Oliveira, G. Onida, Y. Pouillon, T. Rangel, G.-M. Rignanese, D. Sangalli, R. Shaltaf,
 M. Torrent, M.J. Verstraete, G. Zerah, J.W. Zwanziger
 Computer Phys. Comm. 180, 2582-2615 (2009).
 Comment : the third generic paper describing the ABINIT project.
 Note that a version of this paper, that is not formatted for Computer Phys. Comm. 
 is available at http://www.abinit.org/about/ABINIT_CPC_v10.pdf .
 The licence allows the authors to put it on the Web.

 [2] A brief introduction to the ABINIT software package.
 X. Gonze, G.-M. Rignanese, M. Verstraete, J.-M. Beuken, Y. Pouillon, R. Caracas, F. Jollet,
 M. Torrent, G. Zerah, M. Mikami, Ph. Ghosez, M. Veithen, J.-Y. Raty, V. Olevano, F. Bruneval,
 L. Reining, R. Godby, G. Onida, D.R. Hamann, and D.C. Allan.
 Z. Kristallogr. 220, 558-562 (2005).
 Comment : the second generic paper describing the ABINIT project. Note that this paper
 should be cited especially if you are using the GW part of ABINIT, as several authors
 of this part are not in the list of authors of the first or third paper.
 The .pdf of the latter paper is available at http://www.abinit.org/about/zfk_0505-06_558-562.pdf.
 Note that it should not redistributed (Copyright by Oldenburg Wissenshaftverlag,
 the licence allows the authors to put it on the Web).


 And optionally :

 [3] First-principles computation of material properties : the ABINIT software project. 
 X. Gonze, J.-M. Beuken, R. Caracas, F. Detraux, M. Fuchs, G.-M. Rignanese, L. Sindic,
 M. Verstraete, G. Zerah, F. Jollet, M. Torrent, A. Roy, M. Mikami, Ph. Ghosez, J.-Y. Raty, D.C. Allan.
 Computational Materials Science 25, 478-492 (2002). http://dx.doi.org/10.1016/S0927-0256(02)00325-7
 Comment : the original paper describing the ABINIT project.

 [4] Fast radix 2, 3, 4 and 5 kernels for Fast Fourier Transformations
 on computers with overlapping multiply-add instructions.
 S. Goedecker, SIAM J. on Scientific Computing 18, 1605 (1997).
-
- Proc.   0 individual time (sec): cpu=          2.1  wall=          2.1

================================================================================

 Calculation completed.
.Delivered    2 WARNINGs and   1 COMMENTs to log file.
+Overall time at end (sec) : cpu=          2.1  wall=          2.1
