  ABINIT 
  
  Give name for formatted input file: 
t35_relaxado.in
  Give name for formatted output file:
t3x_relaxado.out
  Give root name for generic input files:
t3xi_relaxado
  Give root name for generic output files:
t3xo_relaxado
  Give root name for generic temporary files:
t3x_relaxado

--- !WARNING
message: |
    The starting date is more than 3 years after the initial release
    of this version of ABINIT, namely Jul 2014.
    This version of ABINIT is not supported anymore.
    Action : please, switch to a more recent version of ABINIT.
src_file: Subroutine Unknown
src_line: 0
...


.Version 7.8.2 of ABINIT 
.(sequential version, prepared for a x86_64_linux_gnu5.2 computer) 

.Copyright (C) 1998-2014 ABINIT group . 
 ABINIT comes with ABSOLUTELY NO WARRANTY.
 It is free software, and you are welcome to redistribute it
 under certain conditions (GNU General Public License,
 see ~abinit/COPYING or http://www.gnu.org/copyleft/gpl.txt).

 ABINIT is a project of the Universite Catholique de Louvain,
 Corning Inc. and other collaborators, see ~abinit/doc/developers/contributors.txt .
 Please read ~abinit/doc/users/acknowledgments.html for suggested
 acknowledgments of the ABINIT effort.
 For more information, see http://www.abinit.org .

.Starting date : Tue  1 Aug 2017.
- ( at 21h06 )
  

--- !WARNING
message: |
    The starting date is more than 3 years after the initial release
    of this version of ABINIT, namely Jul 2014.
    This version of ABINIT is not supported anymore.
    Action : please, switch to a more recent version of ABINIT.
src_file: Subroutine Unknown
src_line: 0
...


 ++++++++++++++++++++++++++++++++++++++++++++++++++++++++++++++++++++++++++++++

 === Build Information === 
  Version       : 7.8.2
  Build target  : x86_64_linux_gnu5.2
  Build date    : 20151122

 === Compiler Suite === 
  C compiler       : gnu5.2
  C++ compiler     : gnu5.2
  Fortran compiler : gnu5.2
  CFLAGS           : -g -O2 -fstack-protector-strong -Wformat -Werror=format-security
  CXXFLAGS         : -g -O2 -fstack-protector-strong -Wformat -Werror=format-security
  FCFLAGS          : -g -O2 -fstack-protector-strong
  FC_LDFLAGS       : 

 === Optimizations === 
  Debug level        : basic
  Optimization level : standard
  Architecture       : unknown_unknown

 === Multicore === 
  Parallel build : no
  Parallel I/O   : no
  openMP support : no
  GPU support    : no

 === Connectors / Fallbacks === 
  Connectors on : yes
  Fallbacks on  : yes
  DFT flavor    : none
  FFT flavor    : none
  LINALG flavor : netlib
  MATH flavor   : none
  TIMER flavor  : abinit
  TRIO flavor   : none

 === Experimental features === 
  Bindings            : @enable_bindings@
  Exports             : no
  GW double-precision : no

 ++++++++++++++++++++++++++++++++++++++++++++++++++++++++++++++++++++++++++++++


 ++++++++++++++++++++++++++++++++++++++++++++++++++++++++++++++++++++++++++++++
 Default optimizations:
   --- None ---


 ++++++++++++++++++++++++++++++++++++++++++++++++++++++++++++++++++++++++++++++


 ++++++++++++++++++++++++++++++++++++++++++++++++++++++++++++++++++++++++++++++
 CPP options activated during the build:

                    CC_GNU                   CXX_GNU                    FC_GNU
 
 HAVE_FC_ALLOCATABLE_DT...             HAVE_FC_ASYNC         HAVE_FC_BACKTRACE
 
  HAVE_FC_COMMAND_ARGUMENT      HAVE_FC_COMMAND_LINE        HAVE_FC_CONTIGUOUS
 
           HAVE_FC_CPUTIME              HAVE_FC_EXIT             HAVE_FC_FLUSH
 
             HAVE_FC_GAMMA            HAVE_FC_GETENV   HAVE_FC_IEEE_EXCEPTIONS
 
          HAVE_FC_INT_QUAD             HAVE_FC_IOMSG     HAVE_FC_ISO_C_BINDING
 
           HAVE_FC_PRIVATE         HAVE_FC_PROTECTED         HAVE_FC_STREAM_IO
 
            HAVE_FC_SYSTEM          HAVE_FORTRAN2003        HAVE_LIBPAW_ABINIT
 
               HAVE_LINALG        HAVE_LINALG_SERIAL             HAVE_OS_LINUX
 
                HAVE_TIMER         HAVE_TIMER_ABINIT         HAVE_TIMER_SERIAL
 
              USE_MACROAVE                                                      
 ++++++++++++++++++++++++++++++++++++++++++++++++++++++++++++++++++++++++++++++

- input  file    -> t35_relaxado.in
- output file    -> t3x_relaxado.out
- root for input  files -> t3xi_relaxado
- root for output files -> t3xo_relaxado

-instrng :    66 lines of input have been read from file t35_relaxado.in


 iofn2 : Please give name of formatted atomic psp file
 iofn2 : for atom type   1 , psp file is 14si.pspnc
  read the values zionpsp=  4.0 , pspcod=   1 , lmax=   2

 inpspheads: deduce mpsang  =   3, n1xccc  =2501.

 invars1m : enter jdtset=1
 invars1 : treat image number     1

 symlatt : the Bravais lattice is cF (face-centered cubic)
  xred   is defined in input file
 ingeo : takes atomic coordinates from input array xred

 symlatt : the Bravais lattice is cF (face-centered cubic)

 symlatt : the Bravais lattice is cF (face-centered cubic)
 symspgr : spgroup= 227  Fd -3 m   (=Oh^7)
       Simple Lattice Grid

 invars1m : enter jdtset=2
 invars1 : treat image number     1

 symlatt : the Bravais lattice is cF (face-centered cubic)
  xred   is defined in input file
 ingeo : takes atomic coordinates from input array xred

 symlatt : the Bravais lattice is cF (face-centered cubic)

 symlatt : the Bravais lattice is cF (face-centered cubic)
 symspgr : spgroup= 227  Fd -3 m   (=Oh^7)
 invars2: take the default value of fband=  1.25000000E-01
       Simple Lattice Grid
  dtset%nelect=   8.0000000000000000     
 chkneu : initialized the occupation numbers for occopt=    1
    spin-unpolarized case :
  2.00  2.00  2.00  2.00  0.00
  dtset%nelect=   8.0000000000000000     
 chkneu : initialized the occupation numbers for occopt=    1
    spin-unpolarized case :
  2.00  2.00  2.00  2.00  0.00  0.00  0.00  0.00
mpi_setup: mkmem  undefined in the input file.Use default mkmem  = nkpt
 mpi_setup: With nkpt_me=10 and mkmem  = 10, ground state wf handled in core.
mpi_setup: mkqmem undefined in the input file.Use default mkqmem = nkpt
 mpi_setup: With nkpt_me=10 and mkqmem = 10, ground state wf handled in core.
mpi_setup: mk1mem undefined in the input file.Use default mk1mem = nkpt
 mpi_setup: With nkpt_me=10 and mk1mem = 10, ground state wf handled in core.

--- !COMMENT
message: |
    The second and third dimension of the FFT grid: 0, 0
    were imposed to be multiple of the number of processors for the FFT: 1
src_file: Subroutine Unknown
src_line: 0
...

 For input ecut=  8.000000E+00 best grid ngfft=      20      20      20
       max ecut=  9.454813E+00

 ==== FFT mesh ====
  FFT mesh divisions ........................    20   20   20
  Augmented FFT divisions ...................    21   21   20
  FFT algorithm .............................   112
  FFT cache size ............................    16
 getmpw: optimal value of mpw=     295
mpi_setup: mkmem  undefined in the input file.Use default mkmem  = nkpt
 mpi_setup: With nkpt_me=40 and mkmem  = 40, ground state wf handled in core.
mpi_setup: mkqmem undefined in the input file.Use default mkqmem = nkpt
 mpi_setup: With nkpt_me=40 and mkqmem = 40, ground state wf handled in core.
mpi_setup: mk1mem undefined in the input file.Use default mk1mem = nkpt
 mpi_setup: With nkpt_me=40 and mk1mem = 40, ground state wf handled in core.
 For input ecut=  8.000000E+00 best grid ngfft=      20      20      20
       max ecut=  9.454813E+00

 ==== FFT mesh ====
  FFT mesh divisions ........................    20   20   20
  Augmented FFT divisions ...................    21   21   20
  FFT algorithm .............................   112
  FFT cache size ............................    16
 getmpw: optimal value of mpw=     303

 DATASET    1 : space group Fd -3 m (#227); Bravais cF (face-center cubic)

 getdim_nloc : deduce lmnmax  =   4, lnmax  =   2,
                      lmnmaxso=   4, lnmaxso=   2.
memory : analysis of memory needs
================================================================================
 Values of the parameters that define the memory need for DATASET  1.
   intxc =         0  ionmov =         0    iscf =         7 xclevel =         1
  lmnmax =         2   lnmax =         2   mband =         5  mffmem =         1
P  mgfft =        20   mkmem =        10 mpssoang=         3     mpw =       295
  mqgrid =      3001   natom =         2    nfft =      8000    nkpt =        10
  nloalg =         4  nspden =         1 nspinor =         1  nsppol =         1
    nsym =        48  n1xccc =      2501  ntypat =         1  occopt =         1
================================================================================
P This job should need less than                       3.121 Mbytes of memory.
  Rough estimation (10% accuracy) of disk space for files :
_ WF disk file :      0.227 Mbytes ; DEN or POT disk file :      0.063 Mbytes.
================================================================================

 Biggest array : f_fftgr(disk), with      0.9786 MBytes.
 memana : allocated an array of      0.979 Mbytes, for testing purposes.
 memana : allocated       3.121 Mbytes, for testing purposes. 
 The job will continue.

 DATASET    2 : space group Fd -3 m (#227); Bravais cF (face-center cubic)

 getdim_nloc : deduce lmnmax  =   4, lnmax  =   2,
                      lmnmaxso=   4, lnmaxso=   2.
memory : analysis of memory needs
================================================================================
 Values of the parameters that define the memory need for DATASET  2.
   intxc =         0  ionmov =         0    iscf =        -2 xclevel =         1
  lmnmax =         2   lnmax =         2   mband =         8  mffmem =         1
P  mgfft =        20   mkmem =        40 mpssoang=         3     mpw =       303
  mqgrid =      3001   natom =         2    nfft =      8000    nkpt =        40
  nloalg =         4  nspden =         1 nspinor =         1  nsppol =         1
    nsym =        48  n1xccc =      2501  ntypat =         1  occopt =         1
================================================================================
P This job should need less than                       3.549 Mbytes of memory.
  Rough estimation (10% accuracy) of disk space for files :
_ WF disk file :      1.481 Mbytes ; DEN or POT disk file :      0.063 Mbytes.
================================================================================

 Biggest array : cg(disk), with      1.4815 MBytes.
 memana : allocated an array of      1.481 Mbytes, for testing purposes.
 memana : allocated       3.549 Mbytes, for testing purposes. 
 The job will continue.
--------------------------------------------------------------------------------
------------- Echo of variables that govern the present computation ------------
--------------------------------------------------------------------------------
-
- outvars: echo of selected default values                                      
-   accesswff0 =  0 , fftalg0 =112 , wfoptalg0 =  0
-
- outvars: echo of global parameters not present in the input file              
-  max_nthreads =    0
-
 -outvars: echo values of preprocessed input variables --------
            acell      1.0217000000E+01  1.0217000000E+01  1.0217000000E+01 Bohr
              amu      2.80855000E+01
           diemac      1.20000000E+01
             ecut      8.00000000E+00 Hartree
           enunit1          0
           enunit2          1
-          fftalg         112
           getden1          0
           getden2         -1
             iscf1          7
             iscf2         -2
           istwfk2       3    0    0    0    0    0    0    0    0    0
                         2    0    0    0    0    0    0    0    0    0
                         0    0    8    0    0    0    0    0    0    0
                         0    0    0    0    0    0    0    0    0    0
           jdtset        1    2
              kpt1    -1.25000000E-01 -2.50000000E-01  0.00000000E+00
                      -1.25000000E-01  5.00000000E-01  0.00000000E+00
                      -2.50000000E-01 -3.75000000E-01  0.00000000E+00
                      -1.25000000E-01 -3.75000000E-01  1.25000000E-01
                      -1.25000000E-01  2.50000000E-01  0.00000000E+00
                      -2.50000000E-01  3.75000000E-01  0.00000000E+00
                      -3.75000000E-01  5.00000000E-01  0.00000000E+00
                      -2.50000000E-01  5.00000000E-01  1.25000000E-01
                      -1.25000000E-01  0.00000000E+00  0.00000000E+00
                      -3.75000000E-01  0.00000000E+00  0.00000000E+00
              kpt2     5.00000000E-01  0.00000000E+00  0.00000000E+00
                       4.50000000E-01  0.00000000E+00  0.00000000E+00
                       4.00000000E-01  0.00000000E+00  0.00000000E+00
                       3.50000000E-01  0.00000000E+00  0.00000000E+00
                       3.00000000E-01  0.00000000E+00  0.00000000E+00
                       2.50000000E-01  0.00000000E+00  0.00000000E+00
                       2.00000000E-01  0.00000000E+00  0.00000000E+00
                       1.50000000E-01  0.00000000E+00  0.00000000E+00
                       1.00000000E-01  0.00000000E+00  0.00000000E+00
                       5.00000000E-02  0.00000000E+00  0.00000000E+00
                       0.00000000E+00  0.00000000E+00  0.00000000E+00
                       0.00000000E+00  4.16666667E-02  4.16666667E-02
                       0.00000000E+00  8.33333333E-02  8.33333333E-02
                       0.00000000E+00  1.25000000E-01  1.25000000E-01
                       0.00000000E+00  1.66666667E-01  1.66666667E-01
                       0.00000000E+00  2.08333333E-01  2.08333333E-01
                       0.00000000E+00  2.50000000E-01  2.50000000E-01
                       0.00000000E+00  2.91666667E-01  2.91666667E-01
                       0.00000000E+00  3.33333333E-01  3.33333333E-01
                       0.00000000E+00  3.75000000E-01  3.75000000E-01
                       0.00000000E+00  4.16666667E-01  4.16666667E-01
                       0.00000000E+00  4.58333333E-01  4.58333333E-01
                       0.00000000E+00  5.00000000E-01  5.00000000E-01
                       5.88235294E-02  5.29411765E-01  5.29411765E-01
                       1.17647059E-01  5.58823529E-01  5.58823529E-01
                       1.76470588E-01  5.88235294E-01  5.88235294E-01
                       2.35294118E-01  6.17647059E-01  6.17647059E-01
                       2.94117647E-01  6.47058824E-01  6.47058824E-01
                       3.52941176E-01  6.76470588E-01  6.76470588E-01
                       4.11764706E-01  7.05882353E-01  7.05882353E-01
                       4.70588235E-01  7.35294118E-01  7.35294118E-01
                       5.29411765E-01  7.64705882E-01  7.64705882E-01
                       5.88235294E-01  7.94117647E-01  7.94117647E-01
                       6.47058824E-01  8.23529412E-01  8.23529412E-01
                       7.05882353E-01  8.52941176E-01  8.52941176E-01
                       7.64705882E-01  8.82352941E-01  8.82352941E-01
                       8.23529412E-01  9.11764706E-01  9.11764706E-01
                       8.82352941E-01  9.41176471E-01  9.41176471E-01
                       9.41176471E-01  9.70588235E-01  9.70588235E-01
                       1.00000000E+00  1.00000000E+00  1.00000000E+00
           kptopt1          1
           kptopt2         -3
         kptrlatt        4   -4    4     -4    4    4     -4   -4    4
          kptrlen1     4.08680000E+01
          kptrlen2     3.00000000E+01
P           mkmem1         10
P           mkmem2         40
            natom           2
            nband1          5
            nband2          8
           nbdbuf1          0
           nbdbuf2          2
           ndtset           2
            ngfft          20      20      20
             nkpt1         10
             nkpt2         40
            nstep          10
             nsym          48
           ntypat           1
              occ      2.000000  2.000000  2.000000  2.000000  0.000000
            rprim      0.0000000000E+00  5.0000000000E-01  5.0000000000E-01
                       5.0000000000E-01  0.0000000000E+00  5.0000000000E-01
                       5.0000000000E-01  5.0000000000E-01  0.0000000000E+00
           shiftk      5.00000000E-01  5.00000000E-01  5.00000000E-01
          spgroup         227
           symrel      1  0  0   0  1  0   0  0  1      -1  0  0   0 -1  0   0  0 -1
                       0 -1  1   0 -1  0   1 -1  0       0  1 -1   0  1  0  -1  1  0
                      -1  0  0  -1  0  1  -1  1  0       1  0  0   1  0 -1   1 -1  0
                       0  1 -1   1  0 -1   0  0 -1       0 -1  1  -1  0  1   0  0  1
                      -1  0  0  -1  1  0  -1  0  1       1  0  0   1 -1  0   1  0 -1
                       0 -1  1   1 -1  0   0 -1  0       0  1 -1  -1  1  0   0  1  0
                       1  0  0   0  0  1   0  1  0      -1  0  0   0  0 -1   0 -1  0
                       0  1 -1   0  0 -1   1  0 -1       0 -1  1   0  0  1  -1  0  1
                      -1  0  1  -1  1  0  -1  0  0       1  0 -1   1 -1  0   1  0  0
                       0 -1  0   1 -1  0   0 -1  1       0  1  0  -1  1  0   0  1 -1
                       1  0 -1   0  0 -1   0  1 -1      -1  0  1   0  0  1   0 -1  1
                       0  1  0   0  0  1   1  0  0       0 -1  0   0  0 -1  -1  0  0
                       1  0 -1   0  1 -1   0  0 -1      -1  0  1   0 -1  1   0  0  1
                       0 -1  0   0 -1  1   1 -1  0       0  1  0   0  1 -1  -1  1  0
                      -1  0  1  -1  0  0  -1  1  0       1  0 -1   1  0  0   1 -1  0
                       0  1  0   1  0  0   0  0  1       0 -1  0  -1  0  0   0  0 -1
                       0  0 -1   0  1 -1   1  0 -1       0  0  1   0 -1  1  -1  0  1
                       1 -1  0   0 -1  1   0 -1  0      -1  1  0   0  1 -1   0  1  0
                       0  0  1   1  0  0   0  1  0       0  0 -1  -1  0  0   0 -1  0
                      -1  1  0  -1  0  0  -1  0  1       1 -1  0   1  0  0   1  0 -1
                       0  0  1   0  1  0   1  0  0       0  0 -1   0 -1  0  -1  0  0
                       1 -1  0   0 -1  0   0 -1  1      -1  1  0   0  1  0   0  1 -1
                       0  0 -1   1  0 -1   0  1 -1       0  0  1  -1  0  1   0 -1  1
                      -1  1  0  -1  0  1  -1  0  0       1 -1  0   1  0 -1   1  0  0
            tnons      0.0000000  0.0000000  0.0000000     0.2500000  0.2500000  0.2500000
                       0.0000000  0.0000000  0.0000000     0.2500000  0.2500000  0.2500000
                       0.0000000  0.0000000  0.0000000     0.2500000  0.2500000  0.2500000
                       0.0000000  0.0000000  0.0000000     0.2500000  0.2500000  0.2500000
                       0.0000000  0.0000000  0.0000000     0.2500000  0.2500000  0.2500000
                       0.0000000  0.0000000  0.0000000     0.2500000  0.2500000  0.2500000
                       0.0000000  0.0000000  0.0000000     0.2500000  0.2500000  0.2500000
                       0.0000000  0.0000000  0.0000000     0.2500000  0.2500000  0.2500000
                       0.0000000  0.0000000  0.0000000     0.2500000  0.2500000  0.2500000
                       0.0000000  0.0000000  0.0000000     0.2500000  0.2500000  0.2500000
                       0.0000000  0.0000000  0.0000000     0.2500000  0.2500000  0.2500000
                       0.0000000  0.0000000  0.0000000     0.2500000  0.2500000  0.2500000
                       0.0000000  0.0000000  0.0000000     0.2500000  0.2500000  0.2500000
                       0.0000000  0.0000000  0.0000000     0.2500000  0.2500000  0.2500000
                       0.0000000  0.0000000  0.0000000     0.2500000  0.2500000  0.2500000
                       0.0000000  0.0000000  0.0000000     0.2500000  0.2500000  0.2500000
                       0.0000000  0.0000000  0.0000000     0.2500000  0.2500000  0.2500000
                       0.0000000  0.0000000  0.0000000     0.2500000  0.2500000  0.2500000
                       0.0000000  0.0000000  0.0000000     0.2500000  0.2500000  0.2500000
                       0.0000000  0.0000000  0.0000000     0.2500000  0.2500000  0.2500000
                       0.0000000  0.0000000  0.0000000     0.2500000  0.2500000  0.2500000
                       0.0000000  0.0000000  0.0000000     0.2500000  0.2500000  0.2500000
                       0.0000000  0.0000000  0.0000000     0.2500000  0.2500000  0.2500000
                       0.0000000  0.0000000  0.0000000     0.2500000  0.2500000  0.2500000
           toldfe1     1.00000000E-06 Hartree
           toldfe2     0.00000000E+00 Hartree
           tolwfr1     0.00000000E+00
           tolwfr2     1.00000000E-12
            typat      1  1
              wtk1       0.09375    0.09375    0.09375    0.18750    0.09375    0.09375
                         0.09375    0.18750    0.03125    0.03125
              wtk2       1.00000    1.00000    1.00000    1.00000    1.00000    1.00000
                         1.00000    1.00000    1.00000    1.00000    1.00000    1.00000
                         1.00000    1.00000    1.00000    1.00000    1.00000    1.00000
                         1.00000    1.00000    1.00000    1.00000    1.00000    1.00000
                         1.00000    1.00000    1.00000    1.00000    1.00000    1.00000
                         1.00000    1.00000    1.00000    1.00000    1.00000    1.00000
                         1.00000    1.00000    1.00000    1.00000
           xangst      0.0000000000E+00  0.0000000000E+00  0.0000000000E+00
                       1.3516508850E+00  1.3516508850E+00  1.3516508850E+00
            xcart      0.0000000000E+00  0.0000000000E+00  0.0000000000E+00
                       2.5542500000E+00  2.5542500000E+00  2.5542500000E+00
             xred      0.0000000000E+00  0.0000000000E+00  0.0000000000E+00
                       2.5000000000E-01  2.5000000000E-01  2.5000000000E-01
            znucl       14.00000

================================================================================

 chkinp: machine precision is   2.2204460492503131E-16

 chkinp: Checking input parameters for consistency, jdtset=   1.

 chkinp: Checking input parameters for consistency, jdtset=   2.
 DATA TYPE INFORMATION: 
 REAL:      Data type name: REAL(DP) 
            Kind value:      8
            Precision:      15
            Smallest nonnegligible quantity relative to 1:  0.22204460E-15
            Smallest positive number:                       0.22250739-307
            Largest representable number:                   0.17976931+309
 INTEGER:   Data type name: INTEGER(default) 
            Kind value: 4
            Bit size:   32
            Largest representable number: 2147483647
 LOGICAL:   Data type name: LOGICAL 
            Kind value: 4
 CHARACTER: Data type name: CHARACTER             Kind value: 1

  ==== OpenMP parallelism is OFF ====
 
  MPI-IO support is OFF

================================================================================
== DATASET  1 ==================================================================
-   nproc =    1


 getdim_nloc : deduce lmnmax  =   4, lnmax  =   2,
                      lmnmaxso=   4, lnmaxso=   2.
 Exchange-correlation functional for the present dataset will be:
  LDA: new Teter (4/93) with spin-polarized option - ixc=1
 Citation for XC functional:
  S. Goedecker, M. Teter, J. Huetter, PRB 54, 1703 (1996)

 Unit cell volume ucvol=  2.6663072E+02 bohr^3
 Angles (23,13,12)=  6.00000000E+01  6.00000000E+01  6.00000000E+01 degrees

 getcut: wavevector=  0.0000  0.0000  0.0000  ngfft=  20  20  20
         ecut(hartree)=      8.000   => boxcut(ratio)=   2.17426
- pspini: atom type   1  psp file is 14si.pspnc
- pspatm: opening atomic psp file    14si.pspnc
-  Troullier-Martins psp for element  Si        Thu Oct 27 17:31:21 EDT 1994
- 14.00000   4.00000    940714                znucl, zion, pspdat
    1    1    2    2      2001   0.00000      pspcod,pspxc,lmax,lloc,mmax,r2well
    0   5.907  14.692    1   2.0872718        l,e99.0,e99.9,nproj,rcpsp
   0.00000000   0.00000000   0.00000000   0.00000000     rms, ekb1, ekb2, epsatm
    1   2.617   4.181    1   2.0872718        l,e99.0,e99.9,nproj,rcpsp
   0.00000000   0.00000000   0.00000000   0.00000000     rms, ekb1, ekb2, epsatm
    2   0.000   0.000    0   2.0872718        l,e99.0,e99.9,nproj,rcpsp
   0.00000000   0.00000000   0.00000000   0.00000000     rms, ekb1, ekb2, epsatm
    1.80626423934776    0.22824404341771    1.17378968127746   rchrg,fchrg,qchrg
 pspatm: epsatm=    1.43386982
         --- l  ekb(1:nproj) -->
             0    3.287949
             1    1.849886
 pspatm: atomic psp has been read  and splines computed

   2.29419171E+01                                ecore*ucvol(ha*bohr**3)
   1  2  1  2  1  2  1  2  1  2  1  2  1  2  1  2  1  2  1  2  1  2  1  2
   1  2  1  2  1  2  1  2  1  2  1  2  1  2  1  2  1  2  1  2  1  2  1  2
   2  1  2  1  2  1  2  1  2  1  2  1  2  1  2  1  2  1  2  1  2  1  2  1
   2  1  2  1  2  1  2  1  2  1  2  1  2  1  2  1  2  1  2  1  2  1  2  1
 wfconv:     5 bands initialized randomly with npw=   295, for ikpt=     1
 wfconv:     5 bands initialized randomly with npw=   283, for ikpt=     2
 wfconv:     5 bands initialized randomly with npw=   292, for ikpt=     3
 wfconv:     5 bands initialized randomly with npw=   289, for ikpt=     4
 wfconv:     5 bands initialized randomly with npw=   292, for ikpt=     5
 wfconv:     5 bands initialized randomly with npw=   286, for ikpt=     6
 wfconv:     5 bands initialized randomly with npw=   291, for ikpt=     7
 wfconv:     5 bands initialized randomly with npw=   286, for ikpt=     8
 wfconv:     5 bands initialized randomly with npw=   295, for ikpt=     9
 wfconv:     5 bands initialized randomly with npw=   287, for ikpt=    10

_setup2: Arith. and geom. avg. npw (full set) are     289.031     289.009
 initro : for itypat=  1, take decay length=      1.1000,
 initro : indeed, coreel=     10.0000, nval=  4 and densty=  0.0000E+00.

================================================================================

 getcut: wavevector=  0.0000  0.0000  0.0000  ngfft=  20  20  20
         ecut(hartree)=      8.000   => boxcut(ratio)=   2.17426

 ITER STEP NUMBER     1
 vtorho : nnsclo_now=  2, note that nnsclo,dbl_nnsclo,istep=  0 0  1
 Non-SCF iterations; kpt #     1  , k= ( -0.12500 -0.25000  0.00000  ), band residuals:
 res:  7.75E-02  4.83E-02  4.32E-02  2.58E-02  2.08E-02
 ene: -1.79E-01  9.56E-02  1.52E-01  2.01E-01  3.25E-01
 res:  1.10E-03  6.38E-04  1.98E-04  1.27E-03  2.57E-03
 ene: -2.19E-01  7.45E-02  1.44E-01  1.47E-01  2.82E-01
 vtowfk : number of one-way 3D ffts skipped in vtowfk until now =1
     eigenvalues (hartree) for    5  bands
              after    3 non-SCF iterations with    4 CG line minimizations
 -2.1874E-01  7.4487E-02  1.4355E-01  1.4653E-01  2.8169E-01
 Non-SCF iterations; kpt #     2  , k= ( -0.12500  0.50000  0.00000  ), band residuals:
 res:  5.96E-02  3.17E-02  2.27E-02  1.99E-02  2.11E-02
 ene: -1.40E-01 -2.88E-02  1.33E-01  1.51E-01  3.05E-01
 res:  5.41E-04  5.70E-04  2.76E-04  8.21E-04  1.14E-03
 ene: -1.58E-01 -5.28E-02  1.10E-01  1.34E-01  2.83E-01
 vtowfk : number of one-way 3D ffts skipped in vtowfk until now =2
     eigenvalues (hartree) for    5  bands
              after    3 non-SCF iterations with    4 CG line minimizations
 -1.5849E-01 -5.2801E-02  1.0971E-01  1.3419E-01  2.8301E-01
 Non-SCF iterations; kpt #     3  , k= ( -0.25000 -0.37500  0.00000  ), band residuals:
 res:  4.44E-02  3.37E-02  1.66E-02  3.70E-02  3.58E-02
 ene: -1.65E-01  2.14E-02  1.08E-01  1.41E-01  3.45E-01
 res:  3.18E-04  1.79E-04  9.57E-05  4.43E-04  4.86E-03
 ene: -1.81E-01  1.03E-02  9.65E-02  1.12E-01  2.80E-01
 vtowfk : number of one-way 3D ffts skipped in vtowfk until now =3
     eigenvalues (hartree) for    5  bands
              after    3 non-SCF iterations with    4 CG line minimizations
 -1.8062E-01  1.0331E-02  9.6537E-02  1.1205E-01  2.8025E-01
 Non-SCF iterations; kpt #     4  , k= ( -0.12500 -0.37500  0.12500  ), band residuals:
 res:  3.09E-02  4.81E-02  3.41E-02  1.97E-02  2.04E-02
 ene: -1.57E-01  2.76E-03  8.73E-02  1.36E-01  3.44E-01
 res:  8.07E-05  3.33E-04  1.66E-04  2.71E-04  4.68E-04
 ene: -1.66E-01 -2.16E-02  7.35E-02  1.22E-01  3.33E-01
 vtowfk : number of one-way 3D ffts skipped in vtowfk until now =4
     eigenvalues (hartree) for    5  bands
              after    3 non-SCF iterations with    4 CG line minimizations
 -1.6557E-01 -2.1595E-02  7.3519E-02  1.2213E-01  3.3285E-01
 Non-SCF iterations; kpt #     5  , k= ( -0.12500  0.25000  0.00000  ), band residuals:
 res:  5.93E-02  2.30E-02  4.69E-02  3.88E-02  4.03E-02
 ene: -1.53E-01  4.62E-02  1.21E-01  1.72E-01  3.63E-01
 res:  1.11E-03  4.17E-04  2.70E-04  2.11E-04  2.27E-03
 ene: -2.00E-01  2.35E-02  1.09E-01  1.61E-01  3.01E-01
 vtowfk : number of one-way 3D ffts skipped in vtowfk until now =5
     eigenvalues (hartree) for    5  bands
              after    3 non-SCF iterations with    4 CG line minimizations
 -2.0034E-01  2.3502E-02  1.0927E-01  1.6146E-01  3.0103E-01
 Non-SCF iterations; kpt #     6  , k= ( -0.25000  0.37500  0.00000  ), band residuals:
 res:  2.25E-02  2.33E-02  1.97E-02  5.98E-02  3.50E-02
 ene: -1.28E-01 -4.21E-02  6.96E-02  1.34E-01  3.20E-01
 res:  3.43E-04  2.01E-04  3.65E-04  2.71E-04  7.25E-04
 ene: -1.40E-01 -5.08E-02  5.00E-02  1.23E-01  2.73E-01
 vtowfk : number of one-way 3D ffts skipped in vtowfk until now =6
     eigenvalues (hartree) for    5  bands
              after    3 non-SCF iterations with    4 CG line minimizations
 -1.4019E-01 -5.0757E-02  4.9986E-02  1.2287E-01  2.7302E-01
 Non-SCF iterations; kpt #     7  , k= ( -0.37500  0.50000  0.00000  ), band residuals:
 res:  1.07E-02  4.69E-02  4.00E-02  1.95E-02  1.53E-02
 ene: -1.13E-01 -5.38E-02  7.96E-02  1.07E-01  3.03E-01
 res:  1.28E-04  6.56E-05  1.67E-04  4.21E-04  8.63E-04
 ene: -1.26E-01 -5.91E-02  7.00E-02  9.52E-02  2.65E-01
 vtowfk : number of one-way 3D ffts skipped in vtowfk until now =7
     eigenvalues (hartree) for    5  bands
              after    3 non-SCF iterations with    4 CG line minimizations
 -1.2618E-01 -5.9082E-02  7.0036E-02  9.5157E-02  2.6534E-01
 Non-SCF iterations; kpt #     8  , k= ( -0.25000  0.50000  0.12500  ), band residuals:
 res:  2.39E-02  5.12E-02  1.66E-02  4.30E-02  2.69E-02
 ene: -1.04E-01 -5.30E-02  5.86E-02  1.00E-01  3.33E-01
 res:  3.31E-04  2.43E-04  1.98E-04  2.48E-04  1.04E-03
 ene: -1.20E-01 -6.26E-02  4.80E-02  8.65E-02  2.92E-01
 vtowfk : number of one-way 3D ffts skipped in vtowfk until now =8
     eigenvalues (hartree) for    5  bands
              after    3 non-SCF iterations with    4 CG line minimizations
 -1.2015E-01 -6.2630E-02  4.8015E-02  8.6466E-02  2.9187E-01
 Non-SCF iterations; kpt #     9  , k= ( -0.12500  0.00000  0.00000  ), band residuals:
 res:  8.06E-02  2.88E-02  4.70E-02  1.80E-02  1.38E-02
 ene: -1.92E-01  1.50E-01  1.85E-01  2.03E-01  3.13E-01
 res:  8.66E-04  3.84E-04  7.06E-05  9.24E-04  1.05E-03
 ene: -2.39E-01  1.33E-01  1.79E-01  1.79E-01  2.96E-01
 vtowfk : number of one-way 3D ffts skipped in vtowfk until now =9
     eigenvalues (hartree) for    5  bands
              after    3 non-SCF iterations with    4 CG line minimizations
 -2.3879E-01  1.3317E-01  1.7879E-01  1.7886E-01  2.9633E-01
 Non-SCF iterations; kpt #    10  , k= ( -0.37500  0.00000  0.00000  ), band residuals:
 res:  3.93E-02  4.45E-02  2.68E-02  1.81E-02  2.66E-02
 ene: -1.51E-01 -1.37E-02  1.55E-01  1.70E-01  3.11E-01
 res:  7.75E-04  3.13E-04  5.93E-05  5.77E-04  3.25E-03
 ene: -1.84E-01 -2.37E-02  1.51E-01  1.51E-01  2.62E-01
 vtowfk : number of one-way 3D ffts skipped in vtowfk until now =10
     eigenvalues (hartree) for    5  bands
              after    3 non-SCF iterations with    4 CG line minimizations
 -1.8434E-01 -2.3715E-02  1.5053E-01  1.5107E-01  2.6245E-01
 Total charge density [el/Bohr^3]
,     Maximum=    9.2517E-02  at reduced coord.    0.1000    0.1000    0.7000
,     Minimum=    2.8512E-03  at reduced coord.    0.5000    0.5000    0.5000
,  Integrated=    8.0000E+00
 ETOT  1  -8.8670398817704    -8.867E+00 4.860E-03 5.720E+00
 scprqt: <Vxc>= -3.5180890E-01 hartree

Simple mixing update:
  residual square of the potential :   2.4774762266396637

 ITER STEP NUMBER     2
 vtorho : nnsclo_now=  2, note that nnsclo,dbl_nnsclo,istep=  0 0  2
 Non-SCF iterations; kpt #     1  , k= ( -0.12500 -0.25000  0.00000  ), band residuals:
 res:  3.01E-05  1.07E-05  1.13E-06  2.21E-05  6.47E-05
 ene: -1.98E-01  9.78E-02  1.68E-01  1.71E-01  2.96E-01
 res:  1.64E-09  5.75E-10  1.89E-10  2.28E-09  3.30E-07
 ene: -1.98E-01  9.78E-02  1.68E-01  1.71E-01  2.96E-01
 vtowfk : number of one-way 3D ffts skipped in vtowfk until now =11
     eigenvalues (hartree) for    5  bands
              after    3 non-SCF iterations with    4 CG line minimizations
 -1.9832E-01  9.7846E-02  1.6794E-01  1.7085E-01  2.9560E-01
 Non-SCF iterations; kpt #     2  , k= ( -0.12500  0.50000  0.00000  ), band residuals:
 res:  8.05E-06  4.42E-05  2.07E-05  6.33E-07  9.25E-05
 ene: -1.36E-01 -3.31E-02  1.32E-01  1.59E-01  2.97E-01
 res:  7.70E-10  2.91E-09  1.06E-09  1.55E-10  4.92E-07
 ene: -1.36E-01 -3.31E-02  1.32E-01  1.59E-01  2.97E-01
 vtowfk : number of one-way 3D ffts skipped in vtowfk until now =12
     eigenvalues (hartree) for    5  bands
              after    3 non-SCF iterations with    4 CG line minimizations
 -1.3571E-01 -3.3086E-02  1.3233E-01  1.5895E-01  2.9737E-01
 Non-SCF iterations; kpt #     3  , k= ( -0.25000 -0.37500  0.00000  ), band residuals:
 res:  2.96E-05  8.24E-06  1.73E-05  2.19E-06  3.23E-04
 ene: -1.59E-01  3.48E-02  1.18E-01  1.35E-01  2.66E-01
 res:  2.94E-08  4.27E-09  1.03E-08  3.93E-10  7.76E-06
 ene: -1.59E-01  3.48E-02  1.18E-01  1.35E-01  2.66E-01
 vtowfk : number of one-way 3D ffts skipped in vtowfk until now =13
     eigenvalues (hartree) for    5  bands
              after    3 non-SCF iterations with    4 CG line minimizations
 -1.5924E-01  3.4754E-02  1.1758E-01  1.3483E-01  2.6592E-01
 Non-SCF iterations; kpt #     4  , k= ( -0.12500 -0.37500  0.12500  ), band residuals:
 res:  7.13E-06  2.00E-05  1.35E-05  3.59E-05  3.63E-03
 ene: -1.43E-01  1.09E-03  9.34E-02  1.45E-01  3.38E-01
 res:  2.77E-09  1.34E-07  2.80E-10  3.73E-07  2.76E-04
 ene: -1.43E-01  1.06E-03  9.34E-02  1.45E-01  3.23E-01
 vtowfk : number of one-way 3D ffts skipped in vtowfk until now =14
     eigenvalues (hartree) for    5  bands
              after    3 non-SCF iterations with    4 CG line minimizations
 -1.4332E-01  1.0597E-03  9.3448E-02  1.4517E-01  3.2284E-01
 Non-SCF iterations; kpt #     5  , k= ( -0.12500  0.25000  0.00000  ), band residuals:
 res:  1.52E-05  2.93E-05  1.45E-05  5.71E-07  1.12E-04
 ene: -1.79E-01  4.59E-02  1.31E-01  1.88E-01  3.17E-01
 res:  1.47E-09  2.74E-09  6.69E-10  1.16E-10  2.69E-07
 ene: -1.79E-01  4.59E-02  1.31E-01  1.88E-01  3.17E-01
 vtowfk : number of one-way 3D ffts skipped in vtowfk until now =15
     eigenvalues (hartree) for    5  bands
              after    3 non-SCF iterations with    4 CG line minimizations
 -1.7937E-01  4.5892E-02  1.3101E-01  1.8827E-01  3.1656E-01
 Non-SCF iterations; kpt #     6  , k= ( -0.25000  0.37500  0.00000  ), band residuals:
 res:  3.74E-06  3.02E-05  1.13E-05  5.35E-07  2.62E-05
 ene: -1.17E-01 -2.86E-02  6.84E-02  1.47E-01  2.84E-01
 res:  7.96E-11  1.67E-10  1.72E-11  1.73E-11  2.68E-09
 ene: -1.17E-01 -2.86E-02  6.84E-02  1.47E-01  2.84E-01
 vtowfk : number of one-way 3D ffts skipped in vtowfk until now =16
     eigenvalues (hartree) for    5  bands
              after    3 non-SCF iterations with    4 CG line minimizations
 -1.1700E-01 -2.8629E-02  6.8381E-02  1.4685E-01  2.8427E-01
 Non-SCF iterations; kpt #     7  , k= ( -0.37500  0.50000  0.00000  ), band residuals:
 res:  1.39E-05  8.97E-06  1.37E-05  3.89E-06  1.81E-03
 ene: -1.03E-01 -3.51E-02  8.91E-02  1.17E-01  2.50E-01
 res:  2.97E-08  2.46E-08  3.19E-08  1.07E-09  6.57E-06
 ene: -1.03E-01 -3.51E-02  8.90E-02  1.17E-01  2.49E-01
 vtowfk : number of one-way 3D ffts skipped in vtowfk until now =17
     eigenvalues (hartree) for    5  bands
              after    3 non-SCF iterations with    4 CG line minimizations
 -1.0343E-01 -3.5140E-02  8.9046E-02  1.1722E-01  2.4889E-01
 Non-SCF iterations; kpt #     8  , k= ( -0.25000  0.50000  0.12500  ), band residuals:
 res:  8.42E-06  1.22E-05  7.98E-06  3.19E-05  6.15E-05
 ene: -9.67E-02 -3.90E-02  6.57E-02  1.07E-01  3.05E-01
 res:  1.37E-10  1.41E-10  6.47E-11  4.41E-10  1.04E-07
 ene: -9.67E-02 -3.90E-02  6.57E-02  1.07E-01  3.05E-01
 vtowfk : number of one-way 3D ffts skipped in vtowfk until now =18
     eigenvalues (hartree) for    5  bands
              after    3 non-SCF iterations with    4 CG line minimizations
 -9.6746E-02 -3.9001E-02  6.5703E-02  1.0675E-01  3.0453E-01
 Non-SCF iterations; kpt #     9  , k= ( -0.12500  0.00000  0.00000  ), band residuals:
 res:  1.06E-05  1.72E-05  5.34E-06  4.18E-06  3.69E-04
 ene: -2.18E-01  1.58E-01  2.06E-01  2.06E-01  3.09E-01
 res:  8.79E-09  2.43E-08  3.50E-09  2.71E-08  2.41E-05
 ene: -2.18E-01  1.58E-01  2.06E-01  2.06E-01  3.09E-01
 vtowfk : number of one-way 3D ffts skipped in vtowfk until now =19
     eigenvalues (hartree) for    5  bands
              after    3 non-SCF iterations with    4 CG line minimizations
 -2.1834E-01  1.5784E-01  2.0634E-01  2.0634E-01  3.0858E-01
 Non-SCF iterations; kpt #    10  , k= ( -0.37500  0.00000  0.00000  ), band residuals:
 res:  1.98E-05  4.96E-05  5.43E-07  4.08E-06  5.97E-05
 ene: -1.63E-01 -3.38E-03  1.77E-01  1.77E-01  2.78E-01
 res:  5.79E-10  6.04E-10  5.85E-10  8.71E-10  4.31E-08
 ene: -1.63E-01 -3.38E-03  1.77E-01  1.77E-01  2.78E-01
 vtowfk : number of one-way 3D ffts skipped in vtowfk until now =20
     eigenvalues (hartree) for    5  bands
              after    3 non-SCF iterations with    4 CG line minimizations
 -1.6280E-01 -3.3759E-03  1.7662E-01  1.7662E-01  2.7771E-01
 Total charge density [el/Bohr^3]
,     Maximum=    8.6373E-02  at reduced coord.    0.1000    0.1000    0.7000
,     Minimum=    3.3805E-03  at reduced coord.    0.5000    0.5000    0.5000
,  Integrated=    8.0000E+00
 ETOT  2  -8.8724786475022    -5.439E-03 2.762E-04 1.581E-01
 scprqt: <Vxc>= -3.5414450E-01 hartree

 Pulay update with  1 previous iterations:
 mixing of old trial potential : alpha(m:m-4)=   1.16     -0.158

 ITER STEP NUMBER     3
 vtorho : nnsclo_now=  1, note that nnsclo,dbl_nnsclo,istep=  0 0  3
 Non-SCF iterations; kpt #     1  , k= ( -0.12500 -0.25000  0.00000  ), band residuals:
 res:  6.02E-07  1.75E-07  1.40E-08  4.70E-07  9.07E-07
 ene: -1.99E-01  9.76E-02  1.68E-01  1.71E-01  2.94E-01
 vtowfk : number of one-way 3D ffts skipped in vtowfk until now =21
     eigenvalues (hartree) for    5  bands
              after    2 non-SCF iterations with    4 CG line minimizations
 -1.9895E-01  9.7573E-02  1.6780E-01  1.7066E-01  2.9415E-01
 Non-SCF iterations; kpt #     2  , k= ( -0.12500  0.50000  0.00000  ), band residuals:
 res:  1.85E-07  8.29E-07  4.38E-07  1.00E-08  1.38E-06
 ene: -1.36E-01 -3.39E-02  1.32E-01  1.59E-01  2.96E-01
 vtowfk : number of one-way 3D ffts skipped in vtowfk until now =22
     eigenvalues (hartree) for    5  bands
              after    2 non-SCF iterations with    4 CG line minimizations
 -1.3604E-01 -3.3923E-02  1.3191E-01  1.5886E-01  2.9580E-01
 Non-SCF iterations; kpt #     3  , k= ( -0.25000 -0.37500  0.00000  ), band residuals:
 res:  6.95E-07  1.26E-07  3.63E-07  9.11E-09  1.03E-06
 ene: -1.60E-01  3.46E-02  1.17E-01  1.35E-01  2.64E-01
 vtowfk : number of one-way 3D ffts skipped in vtowfk until now =23
     eigenvalues (hartree) for    5  bands
              after    2 non-SCF iterations with    4 CG line minimizations
 -1.5976E-01  3.4588E-02  1.1696E-01  1.3453E-01  2.6395E-01
 Non-SCF iterations; kpt #     4  , k= ( -0.12500 -0.37500  0.12500  ), band residuals:
 res:  4.67E-07  2.98E-07  7.31E-07  1.66E-07  2.82E-06
 ene: -1.44E-01  6.35E-04  9.27E-02  1.45E-01  3.21E-01
 vtowfk : number of one-way 3D ffts skipped in vtowfk until now =24
     eigenvalues (hartree) for    5  bands
              after    2 non-SCF iterations with    4 CG line minimizations
 -1.4377E-01  6.3456E-04  9.2658E-02  1.4482E-01  3.2119E-01
 Non-SCF iterations; kpt #     5  , k= ( -0.12500  0.25000  0.00000  ), band residuals:
 res:  3.69E-07  4.94E-07  3.72E-07  4.38E-09  7.34E-07
 ene: -1.80E-01  4.54E-02  1.30E-01  1.88E-01  3.15E-01
 vtowfk : number of one-way 3D ffts skipped in vtowfk until now =25
     eigenvalues (hartree) for    5  bands
              after    2 non-SCF iterations with    4 CG line minimizations
 -1.7993E-01  4.5430E-02  1.3048E-01  1.8840E-01  3.1533E-01
 Non-SCF iterations; kpt #     6  , k= ( -0.25000  0.37500  0.00000  ), band residuals:
 res:  1.06E-07  5.98E-07  2.54E-07  8.46E-09  4.60E-07
 ene: -1.17E-01 -2.91E-02  6.74E-02  1.47E-01  2.82E-01
 vtowfk : number of one-way 3D ffts skipped in vtowfk until now =26
     eigenvalues (hartree) for    5  bands
              after    2 non-SCF iterations with    4 CG line minimizations
 -1.1729E-01 -2.9135E-02  6.7368E-02  1.4667E-01  2.8223E-01
 Non-SCF iterations; kpt #     7  , k= ( -0.37500  0.50000  0.00000  ), band residuals:
 res:  4.42E-07  1.80E-07  1.16E-07  7.27E-09  1.58E-06
 ene: -1.04E-01 -3.54E-02  8.82E-02  1.17E-01  2.47E-01
 vtowfk : number of one-way 3D ffts skipped in vtowfk until now =27
     eigenvalues (hartree) for    5  bands
              after    2 non-SCF iterations with    4 CG line minimizations
 -1.0381E-01 -3.5356E-02  8.8203E-02  1.1687E-01  2.4654E-01
 Non-SCF iterations; kpt #     8  , k= ( -0.25000  0.50000  0.12500  ), band residuals:
 res:  1.90E-07  2.44E-07  1.70E-07  7.69E-07  1.13E-06
 ene: -9.70E-02 -3.93E-02  6.46E-02  1.06E-01  3.03E-01
 vtowfk : number of one-way 3D ffts skipped in vtowfk until now =28
     eigenvalues (hartree) for    5  bands
              after    2 non-SCF iterations with    4 CG line minimizations
 -9.7012E-02 -3.9265E-02  6.4586E-02  1.0603E-01  3.0267E-01
 Non-SCF iterations; kpt #     9  , k= ( -0.12500  0.00000  0.00000  ), band residuals:
 res:  3.01E-07  1.92E-07  3.84E-08  3.93E-08  1.23E-05
 ene: -2.19E-01  1.58E-01  2.06E-01  2.06E-01  3.07E-01
 vtowfk : number of one-way 3D ffts skipped in vtowfk until now =29
     eigenvalues (hartree) for    5  bands
              after    2 non-SCF iterations with    4 CG line minimizations
 -2.1902E-01  1.5765E-01  2.0649E-01  2.0649E-01  3.0729E-01
 Non-SCF iterations; kpt #    10  , k= ( -0.37500  0.00000  0.00000  ), band residuals:
 res:  4.14E-07  8.83E-07  7.63E-09  7.67E-09  1.13E-06
 ene: -1.63E-01 -4.12E-03  1.77E-01  1.77E-01  2.76E-01
 vtowfk : number of one-way 3D ffts skipped in vtowfk until now =30
     eigenvalues (hartree) for    5  bands
              after    2 non-SCF iterations with    4 CG line minimizations
 -1.6329E-01 -4.1245E-03  1.7668E-01  1.7668E-01  2.7619E-01
 Total charge density [el/Bohr^3]
,     Maximum=    8.5815E-02  at reduced coord.    0.1000    0.1000    0.7000
,     Minimum=    3.5020E-03  at reduced coord.    0.5000    0.5000    0.5000
,  Integrated=    8.0000E+00
 ETOT  3  -8.8725561766906    -7.753E-05 1.230E-05 2.939E-03
 scprqt: <Vxc>= -3.5447733E-01 hartree

 Pulay update with  2 previous iterations:
 mixing of old trial potential : alpha(m:m-4)=   1.24     -0.256      0.199E-01

 ITER STEP NUMBER     4
 vtorho : nnsclo_now=  1, note that nnsclo,dbl_nnsclo,istep=  0 0  4
 Non-SCF iterations; kpt #     1  , k= ( -0.12500 -0.25000  0.00000  ), band residuals:
 res:  9.13E-09  2.15E-09  3.15E-10  4.00E-09  1.88E-08
 ene: -1.99E-01  9.75E-02  1.68E-01  1.71E-01  2.94E-01
 vtowfk : number of one-way 3D ffts skipped in vtowfk until now =31
     eigenvalues (hartree) for    5  bands
              after    2 non-SCF iterations with    4 CG line minimizations
 -1.9907E-01  9.7481E-02  1.6771E-01  1.7057E-01  2.9395E-01
 Non-SCF iterations; kpt #     2  , k= ( -0.12500  0.50000  0.00000  ), band residuals:
 res:  2.50E-09  1.09E-08  5.18E-09  4.23E-11  2.35E-08
 ene: -1.36E-01 -3.41E-02  1.32E-01  1.59E-01  2.96E-01
 vtowfk : number of one-way 3D ffts skipped in vtowfk until now =32
     eigenvalues (hartree) for    5  bands
              after    2 non-SCF iterations with    4 CG line minimizations
 -1.3613E-01 -3.4074E-02  1.3180E-01  1.5878E-01  2.9558E-01
 Non-SCF iterations; kpt #     3  , k= ( -0.25000 -0.37500  0.00000  ), band residuals:
 res:  9.91E-09  1.32E-09  4.55E-09  1.48E-10  2.52E-08
 ene: -1.60E-01  3.45E-02  1.17E-01  1.34E-01  2.64E-01
 vtowfk : number of one-way 3D ffts skipped in vtowfk until now =33
     eigenvalues (hartree) for    5  bands
              after    2 non-SCF iterations with    4 CG line minimizations
 -1.5987E-01  3.4512E-02  1.1683E-01  1.3444E-01  2.6368E-01
 Non-SCF iterations; kpt #     4  , k= ( -0.12500 -0.37500  0.12500  ), band residuals:
 res:  6.56E-09  4.08E-09  9.24E-09  1.64E-09  3.15E-07
 ene: -1.44E-01  5.31E-04  9.25E-02  1.45E-01  3.21E-01
 vtowfk : number of one-way 3D ffts skipped in vtowfk until now =34
     eigenvalues (hartree) for    5  bands
              after    2 non-SCF iterations with    4 CG line minimizations
 -1.4387E-01  5.3073E-04  9.2511E-02  1.4472E-01  3.2097E-01
 Non-SCF iterations; kpt #     5  , k= ( -0.12500  0.25000  0.00000  ), band residuals:
 res:  5.51E-09  5.51E-09  4.40E-09  1.52E-10  1.59E-08
 ene: -1.80E-01  4.53E-02  1.30E-01  1.88E-01  3.15E-01
 vtowfk : number of one-way 3D ffts skipped in vtowfk until now =35
     eigenvalues (hartree) for    5  bands
              after    2 non-SCF iterations with    4 CG line minimizations
 -1.8005E-01  4.5320E-02  1.3035E-01  1.8834E-01  3.1517E-01
 Non-SCF iterations; kpt #     6  , k= ( -0.25000  0.37500  0.00000  ), band residuals:
 res:  1.34E-09  7.52E-09  3.67E-09  1.63E-10  7.00E-09
 ene: -1.17E-01 -2.92E-02  6.72E-02  1.47E-01  2.82E-01
 vtowfk : number of one-way 3D ffts skipped in vtowfk until now =36
     eigenvalues (hartree) for    5  bands
              after    2 non-SCF iterations with    4 CG line minimizations
 -1.1738E-01 -2.9247E-02  6.7196E-02  1.4659E-01  2.8195E-01
 Non-SCF iterations; kpt #     7  , k= ( -0.37500  0.50000  0.00000  ), band residuals:
 res:  5.57E-09  1.86E-09  1.48E-09  9.69E-11  1.65E-08
 ene: -1.04E-01 -3.54E-02  8.81E-02  1.17E-01  2.46E-01
 vtowfk : number of one-way 3D ffts skipped in vtowfk until now =37
     eigenvalues (hartree) for    5  bands
              after    2 non-SCF iterations with    4 CG line minimizations
 -1.0390E-01 -3.5433E-02  8.8053E-02  1.1677E-01  2.4621E-01
 Non-SCF iterations; kpt #     8  , k= ( -0.25000  0.50000  0.12500  ), band residuals:
 res:  2.40E-09  2.93E-09  2.64E-09  9.53E-09  1.97E-08
 ene: -9.71E-02 -3.93E-02  6.44E-02  1.06E-01  3.02E-01
 vtowfk : number of one-way 3D ffts skipped in vtowfk until now =38
     eigenvalues (hartree) for    5  bands
              after    2 non-SCF iterations with    4 CG line minimizations
 -9.7094E-02 -3.9348E-02  6.4402E-02  1.0589E-01  3.0240E-01
 Non-SCF iterations; kpt #     9  , k= ( -0.12500  0.00000  0.00000  ), band residuals:
 res:  5.25E-09  9.71E-10  3.80E-11  4.32E-11  8.03E-07
 ene: -2.19E-01  1.58E-01  2.06E-01  2.06E-01  3.07E-01
 vtowfk : number of one-way 3D ffts skipped in vtowfk until now =39
     eigenvalues (hartree) for    5  bands
              after    2 non-SCF iterations with    4 CG line minimizations
 -2.1914E-01  1.5756E-01  2.0642E-01  2.0642E-01  3.0713E-01
 Non-SCF iterations; kpt #    10  , k= ( -0.37500  0.00000  0.00000  ), band residuals:
 res:  6.00E-09  1.09E-08  5.32E-11  5.37E-11  1.40E-08
 ene: -1.63E-01 -4.27E-03  1.77E-01  1.77E-01  2.76E-01
 vtowfk : number of one-way 3D ffts skipped in vtowfk until now =40
     eigenvalues (hartree) for    5  bands
              after    2 non-SCF iterations with    4 CG line minimizations
 -1.6339E-01 -4.2658E-03  1.7661E-01  1.7661E-01  2.7598E-01
 Total charge density [el/Bohr^3]
,     Maximum=    8.5807E-02  at reduced coord.    0.1000    0.1000    0.7000
,     Minimum=    3.5212E-03  at reduced coord.    0.5000    0.5000    0.5000
,  Integrated=    8.0000E+00
 ETOT  4  -8.8725570695152    -8.928E-07 8.033E-07 1.103E-05
 scprqt: <Vxc>= -3.5451300E-01 hartree

 Pulay update with  3 previous iterations:
 mixing of old trial potential : alpha(m:m-4)=   1.18     -0.218      0.411E-01 -0.361E-02

 ITER STEP NUMBER     5
 vtorho : nnsclo_now=  1, note that nnsclo,dbl_nnsclo,istep=  0 0  5
 Non-SCF iterations; kpt #     1  , k= ( -0.12500 -0.25000  0.00000  ), band residuals:
 res:  6.38E-11  1.96E-11  1.09E-12  2.29E-11  9.30E-11
 ene: -1.99E-01  9.75E-02  1.68E-01  1.71E-01  2.94E-01
 vtowfk : number of one-way 3D ffts skipped in vtowfk until now =41
     eigenvalues (hartree) for    5  bands
              after    2 non-SCF iterations with    4 CG line minimizations
 -1.9910E-01  9.7460E-02  1.6769E-01  1.7054E-01  2.9392E-01
 Non-SCF iterations; kpt #     2  , k= ( -0.12500  0.50000  0.00000  ), band residuals:
 res:  1.94E-11  8.92E-11  2.79E-11  8.67E-13  6.37E-10
 ene: -1.36E-01 -3.41E-02  1.32E-01  1.59E-01  2.96E-01
 vtowfk : number of one-way 3D ffts skipped in vtowfk until now =42
     eigenvalues (hartree) for    5  bands
              after    2 non-SCF iterations with    4 CG line minimizations
 -1.3615E-01 -3.4100E-02  1.3177E-01  1.5876E-01  2.9556E-01
 Non-SCF iterations; kpt #     3  , k= ( -0.25000 -0.37500  0.00000  ), band residuals:
 res:  6.72E-11  1.42E-11  2.04E-11  2.35E-12  1.32E-10
 ene: -1.60E-01  3.45E-02  1.17E-01  1.34E-01  2.64E-01
 vtowfk : number of one-way 3D ffts skipped in vtowfk until now =43
     eigenvalues (hartree) for    5  bands
              after    2 non-SCF iterations with    4 CG line minimizations
 -1.5990E-01  3.4493E-02  1.1681E-01  1.3442E-01  2.6365E-01
 Non-SCF iterations; kpt #     4  , k= ( -0.12500 -0.37500  0.12500  ), band residuals:
 res:  4.92E-11  3.58E-11  3.78E-11  1.17E-11  3.98E-09
 ene: -1.44E-01  5.09E-04  9.25E-02  1.45E-01  3.21E-01
 vtowfk : number of one-way 3D ffts skipped in vtowfk until now =44
     eigenvalues (hartree) for    5  bands
              after    2 non-SCF iterations with    4 CG line minimizations
 -1.4389E-01  5.0919E-04  9.2484E-02  1.4469E-01  3.2094E-01
 Non-SCF iterations; kpt #     5  , k= ( -0.12500  0.25000  0.00000  ), band residuals:
 res:  3.36E-11  6.80E-11  2.19E-11  1.00E-12  5.14E-10
 ene: -1.80E-01  4.53E-02  1.30E-01  1.88E-01  3.15E-01
 vtowfk : number of one-way 3D ffts skipped in vtowfk until now =45
     eigenvalues (hartree) for    5  bands
              after    2 non-SCF iterations with    4 CG line minimizations
 -1.8007E-01  4.5298E-02  1.3033E-01  1.8831E-01  3.1515E-01
 Non-SCF iterations; kpt #     6  , k= ( -0.25000  0.37500  0.00000  ), band residuals:
 res:  1.12E-11  6.84E-11  2.58E-11  2.68E-12  7.35E-11
 ene: -1.17E-01 -2.93E-02  6.72E-02  1.47E-01  2.82E-01
 vtowfk : number of one-way 3D ffts skipped in vtowfk until now =46
     eigenvalues (hartree) for    5  bands
              after    2 non-SCF iterations with    4 CG line minimizations
 -1.1740E-01 -2.9269E-02  6.7168E-02  1.4657E-01  2.8192E-01
 Non-SCF iterations; kpt #     7  , k= ( -0.37500  0.50000  0.00000  ), band residuals:
 res:  4.87E-11  2.24E-11  7.50E-12  1.92E-12  7.91E-10
 ene: -1.04E-01 -3.55E-02  8.80E-02  1.17E-01  2.46E-01
 vtowfk : number of one-way 3D ffts skipped in vtowfk until now =47
     eigenvalues (hartree) for    5  bands
              after    2 non-SCF iterations with    4 CG line minimizations
 -1.0392E-01 -3.5453E-02  8.8025E-02  1.1675E-01  2.4618E-01
 Non-SCF iterations; kpt #     8  , k= ( -0.25000  0.50000  0.12500  ), band residuals:
 res:  2.16E-11  3.32E-11  1.13E-11  3.45E-11  1.59E-10
 ene: -9.71E-02 -3.94E-02  6.44E-02  1.06E-01  3.02E-01
 vtowfk : number of one-way 3D ffts skipped in vtowfk until now =48
     eigenvalues (hartree) for    5  bands
              after    2 non-SCF iterations with    4 CG line minimizations
 -9.7114E-02 -3.9368E-02  6.4373E-02  1.0586E-01  3.0237E-01
 Non-SCF iterations; kpt #     9  , k= ( -0.12500  0.00000  0.00000  ), band residuals:
 res:  3.80E-11  2.74E-11  3.73E-12  3.76E-12  2.87E-07
 ene: -2.19E-01  1.58E-01  2.06E-01  2.06E-01  3.07E-01
 vtowfk : number of one-way 3D ffts skipped in vtowfk until now =49
     eigenvalues (hartree) for    5  bands
              after    2 non-SCF iterations with    4 CG line minimizations
 -2.1917E-01  1.5754E-01  2.0640E-01  2.0640E-01  3.0711E-01
 Non-SCF iterations; kpt #    10  , k= ( -0.37500  0.00000  0.00000  ), band residuals:
 res:  4.39E-11  1.00E-10  1.06E-12  1.06E-12  1.25E-10
 ene: -1.63E-01 -4.29E-03  1.77E-01  1.77E-01  2.76E-01
 vtowfk : number of one-way 3D ffts skipped in vtowfk until now =50
     eigenvalues (hartree) for    5  bands
              after    2 non-SCF iterations with    4 CG line minimizations
 -1.6341E-01 -4.2905E-03  1.7659E-01  1.7659E-01  2.7596E-01
 Total charge density [el/Bohr^3]
,     Maximum=    8.5804E-02  at reduced coord.    0.1000    0.1000    0.7000
,     Minimum=    3.5223E-03  at reduced coord.    0.5000    0.5000    0.5000
,  Integrated=    8.0000E+00
 ETOT  5  -8.8725570746341    -5.119E-09 2.875E-07 2.949E-08
 scprqt: <Vxc>= -3.5451588E-01 hartree

 At SCF step    5, etot is converged : 
  for the second time, diff in etot=  5.119E-09 < toldfe=  1.000E-06

 Cartesian components of stress tensor (hartree/bohr^3)
  sigma(1 1)=  3.02554038E-05  sigma(3 2)=  0.00000000E+00
  sigma(2 2)=  3.02554038E-05  sigma(3 1)=  0.00000000E+00
  sigma(3 3)=  3.02554038E-05  sigma(2 1)=  0.00000000E+00

   1  2  1  2  1  2  1  2  1  2  1  2  1  2  1  2  1  2  1  2  1  2  1  2
   1  2  1  2  1  2  1  2  1  2  1  2  1  2  1  2  1  2  1  2  1  2  1  2
   2  1  2  1  2  1  2  1  2  1  2  1  2  1  2  1  2  1  2  1  2  1  2  1
   2  1  2  1  2  1  2  1  2  1  2  1  2  1  2  1  2  1  2  1  2  1  2  1
 ioarr: writing density data
ioarr: file name is t3xo_relaxado_DS1_DEN
ioarr: data written to disk file t3xo_relaxado_DS1_DEN
================================================================================

 ----iterations are completed or convergence reached----


 outwf: write wavefunction to file t3xo_relaxado_DS1_WFK, with accesswff -1
 outwf with iomode: -1, cpu:     0.00, wall:     0.00

 === Gap info ===
  >>>> For spin  1
   Minimum optical gap =   2.7040 [eV], located at k-point      :  -0.3750  0.0000  0.0000
   Fundamental gap     =   1.0825 [eV], Top of valence bands at :  -0.1250  0.0000  0.0000
                                        Bottom of conduction at :  -0.3750  0.5000  0.0000

 Cartesian components of stress tensor (hartree/bohr^3)
  sigma(1 1)=  3.02554038E-05  sigma(3 2)=  0.00000000E+00
  sigma(2 2)=  3.02554038E-05  sigma(3 1)=  0.00000000E+00
  sigma(3 3)=  3.02554038E-05  sigma(2 1)=  0.00000000E+00

-Cartesian components of stress tensor (GPa)         [Pressure= -8.9014E-01 GPa]
- sigma(1 1)=  8.90144563E-01  sigma(3 2)=  0.00000000E+00
- sigma(2 2)=  8.90144563E-01  sigma(3 1)=  0.00000000E+00
- sigma(3 3)=  8.90144563E-01  sigma(2 1)=  0.00000000E+00

================================================================================
== DATASET  2 ==================================================================
-   nproc =    1

 mkfilename : getden/=0, take file _DEN from output of DATASET   1.


 getdim_nloc : deduce lmnmax  =   4, lnmax  =   2,
                      lmnmaxso=   4, lnmaxso=   2.
 Exchange-correlation functional for the present dataset will be:
  LDA: new Teter (4/93) with spin-polarized option - ixc=1
 Citation for XC functional:
  S. Goedecker, M. Teter, J. Huetter, PRB 54, 1703 (1996)

 Unit cell volume ucvol=  2.6663072E+02 bohr^3
 Angles (23,13,12)=  6.00000000E+01  6.00000000E+01  6.00000000E+01 degrees

 getcut: wavevector=  0.0000  0.0000  0.0000  ngfft=  20  20  20
         ecut(hartree)=      8.000   => boxcut(ratio)=   2.17426
   1  2  1  2  1  2  1  2  1  2  1  2  1  2  1  2  1  2  1  2  1  2  1  2
   1  2  1  2  1  2  1  2  1  2  1  2  1  2  1  2  1  2  1  2  1  2  1  2
   2  1  2  1  2  1  2  1  2  1  2  1  2  1  2  1  2  1  2  1  2  1  2  1
   2  1  2  1  2  1  2  1  2  1  2  1  2  1  2  1  2  1  2  1  2  1  2  1
 wfconv:     8 bands initialized randomly with npw=   136, for ikpt=     1
 wfconv:     8 bands initialized randomly with npw=   284, for ikpt=     2
 wfconv:     8 bands initialized randomly with npw=   281, for ikpt=     3
 wfconv:     8 bands initialized randomly with npw=   287, for ikpt=     4
 wfconv:     8 bands initialized randomly with npw=   290, for ikpt=     5
 wfconv:     8 bands initialized randomly with npw=   296, for ikpt=     6
 wfconv:     8 bands initialized randomly with npw=   295, for ikpt=     7
 wfconv:     8 bands initialized randomly with npw=   295, for ikpt=     8
 wfconv:     8 bands initialized randomly with npw=   295, for ikpt=     9
 wfconv:     8 bands initialized randomly with npw=   286, for ikpt=    10
 wfconv:     8 bands initialized randomly with npw=   142, for ikpt=    11
 wfconv:     8 bands initialized randomly with npw=   287, for ikpt=    12
 wfconv:     8 bands initialized randomly with npw=   299, for ikpt=    13
 wfconv:     8 bands initialized randomly with npw=   295, for ikpt=    14
 wfconv:     8 bands initialized randomly with npw=   295, for ikpt=    15
 wfconv:     8 bands initialized randomly with npw=   295, for ikpt=    16
 wfconv:     8 bands initialized randomly with npw=   303, for ikpt=    17
 wfconv:     8 bands initialized randomly with npw=   298, for ikpt=    18
 wfconv:     8 bands initialized randomly with npw=   302, for ikpt=    19
 wfconv:     8 bands initialized randomly with npw=   286, for ikpt=    20
 wfconv:     8 bands initialized randomly with npw=   290, for ikpt=    21
 wfconv:     8 bands initialized randomly with npw=   294, for ikpt=    22
 wfconv:     8 bands initialized randomly with npw=   151, for ikpt=    23
 wfconv:     8 bands initialized randomly with npw=   294, for ikpt=    24
 wfconv:     8 bands initialized randomly with npw=   288, for ikpt=    25
 wfconv:     8 bands initialized randomly with npw=   280, for ikpt=    26
 wfconv:     8 bands initialized randomly with npw=   288, for ikpt=    27
 wfconv:     8 bands initialized randomly with npw=   284, for ikpt=    28
 wfconv:     8 bands initialized randomly with npw=   284, for ikpt=    29
 wfconv:     8 bands initialized randomly with npw=   285, for ikpt=    30
 wfconv:     8 bands initialized randomly with npw=   285, for ikpt=    31
 wfconv:     8 bands initialized randomly with npw=   289, for ikpt=    32
 wfconv:     8 bands initialized randomly with npw=   295, for ikpt=    33
 wfconv:     8 bands initialized randomly with npw=   295, for ikpt=    34
 wfconv:     8 bands initialized randomly with npw=   295, for ikpt=    35
 wfconv:     8 bands initialized randomly with npw=   297, for ikpt=    36
 wfconv:     8 bands initialized randomly with npw=   291, for ikpt=    37
 wfconv:     8 bands initialized randomly with npw=   293, for ikpt=    38
 wfconv:     8 bands initialized randomly with npw=   289, for ikpt=    39
 wfconv:     8 bands initialized randomly with npw=   283, for ikpt=    40

 ioarr: reading density data
ioarr: file name is t3xo_relaxado_DS1_DEN

================================================================================

          - hdr_check: checking restart file header for consistency -


        current calculation                         restart file
        -------------------                         ------------

  calculation expects a density         |  input file contains a density
. ABINIT  code version 7.8.2            |  ABINIT  code version 7.8.2
. date 20170801 bantot  320 natom    2  |  date 20170801 bantot   50 natom    2
  nkpt  40 nsym 48 ngfft  20,  20,  20  |  nkpt  10 nsym 48 ngfft  20,  20,  20
  ntypat  1 ecut_eff   8.0000000        |  ntypat  1 ecut_eff   8.0000000
  usepaw  0                             |  usepaw  0
  usewvl  0                             |  usewvl  0
  rprimd:                               |  rprimd:
     0.0000000   5.1085000   5.1085000  |     0.0000000   5.1085000   5.1085000
     5.1085000   0.0000000   5.1085000  |     5.1085000   0.0000000   5.1085000
     5.1085000   5.1085000   0.0000000  |     5.1085000   5.1085000   0.0000000
  symafm:                               |  symafm:
    1  1  1  1  1  1  1  1  1  1  1  1  |    1  1  1  1  1  1  1  1  1  1  1  1
    1  1  1  1  1  1  1  1  1  1  1  1  |    1  1  1  1  1  1  1  1  1  1  1  1
    1  1  1  1  1  1  1  1  1  1  1  1  |    1  1  1  1  1  1  1  1  1  1  1  1
    1  1  1  1  1  1  1  1  1  1  1  1  |    1  1  1  1  1  1  1  1  1  1  1  1
  symrel:                               |  symrel:
    1  0  0  0  1  0  0  0  1           |    1  0  0  0  1  0  0  0  1
   -1  0  0  0 -1  0  0  0 -1           |   -1  0  0  0 -1  0  0  0 -1
    0 -1  1  0 -1  0  1 -1  0           |    0 -1  1  0 -1  0  1 -1  0
    0  1 -1  0  1  0 -1  1  0           |    0  1 -1  0  1  0 -1  1  0
   -1  0  0 -1  0  1 -1  1  0           |   -1  0  0 -1  0  1 -1  1  0
    1  0  0  1  0 -1  1 -1  0           |    1  0  0  1  0 -1  1 -1  0
    0  1 -1  1  0 -1  0  0 -1           |    0  1 -1  1  0 -1  0  0 -1
    0 -1  1 -1  0  1  0  0  1           |    0 -1  1 -1  0  1  0  0  1
   -1  0  0 -1  1  0 -1  0  1           |   -1  0  0 -1  1  0 -1  0  1
    1  0  0  1 -1  0  1  0 -1           |    1  0  0  1 -1  0  1  0 -1
    0 -1  1  1 -1  0  0 -1  0           |    0 -1  1  1 -1  0  0 -1  0
    0  1 -1 -1  1  0  0  1  0           |    0  1 -1 -1  1  0  0  1  0
    1  0  0  0  0  1  0  1  0           |    1  0  0  0  0  1  0  1  0
   -1  0  0  0  0 -1  0 -1  0           |   -1  0  0  0  0 -1  0 -1  0
    0  1 -1  0  0 -1  1  0 -1           |    0  1 -1  0  0 -1  1  0 -1
    0 -1  1  0  0  1 -1  0  1           |    0 -1  1  0  0  1 -1  0  1
   -1  0  1 -1  1  0 -1  0  0           |   -1  0  1 -1  1  0 -1  0  0
    1  0 -1  1 -1  0  1  0  0           |    1  0 -1  1 -1  0  1  0  0
    0 -1  0  1 -1  0  0 -1  1           |    0 -1  0  1 -1  0  0 -1  1
    0  1  0 -1  1  0  0  1 -1           |    0  1  0 -1  1  0  0  1 -1
    1  0 -1  0  0 -1  0  1 -1           |    1  0 -1  0  0 -1  0  1 -1
   -1  0  1  0  0  1  0 -1  1           |   -1  0  1  0  0  1  0 -1  1
    0  1  0  0  0  1  1  0  0           |    0  1  0  0  0  1  1  0  0
    0 -1  0  0  0 -1 -1  0  0           |    0 -1  0  0  0 -1 -1  0  0
    1  0 -1  0  1 -1  0  0 -1           |    1  0 -1  0  1 -1  0  0 -1
   -1  0  1  0 -1  1  0  0  1           |   -1  0  1  0 -1  1  0  0  1
    0 -1  0  0 -1  1  1 -1  0           |    0 -1  0  0 -1  1  1 -1  0
    0  1  0  0  1 -1 -1  1  0           |    0  1  0  0  1 -1 -1  1  0
   -1  0  1 -1  0  0 -1  1  0           |   -1  0  1 -1  0  0 -1  1  0
    1  0 -1  1  0  0  1 -1  0           |    1  0 -1  1  0  0  1 -1  0
    0  1  0  1  0  0  0  0  1           |    0  1  0  1  0  0  0  0  1
    0 -1  0 -1  0  0  0  0 -1           |    0 -1  0 -1  0  0  0  0 -1
    0  0 -1  0  1 -1  1  0 -1           |    0  0 -1  0  1 -1  1  0 -1
    0  0  1  0 -1  1 -1  0  1           |    0  0  1  0 -1  1 -1  0  1
    1 -1  0  0 -1  1  0 -1  0           |    1 -1  0  0 -1  1  0 -1  0
   -1  1  0  0  1 -1  0  1  0           |   -1  1  0  0  1 -1  0  1  0
    0  0  1  1  0  0  0  1  0           |    0  0  1  1  0  0  0  1  0
    0  0 -1 -1  0  0  0 -1  0           |    0  0 -1 -1  0  0  0 -1  0
   -1  1  0 -1  0  0 -1  0  1           |   -1  1  0 -1  0  0 -1  0  1
    1 -1  0  1  0  0  1  0 -1           |    1 -1  0  1  0  0  1  0 -1
    0  0  1  0  1  0  1  0  0           |    0  0  1  0  1  0  1  0  0
    0  0 -1  0 -1  0 -1  0  0           |    0  0 -1  0 -1  0 -1  0  0
    1 -1  0  0 -1  0  0 -1  1           |    1 -1  0  0 -1  0  0 -1  1
   -1  1  0  0  1  0  0  1 -1           |   -1  1  0  0  1  0  0  1 -1
    0  0 -1  1  0 -1  0  1 -1           |    0  0 -1  1  0 -1  0  1 -1
    0  0  1 -1  0  1  0 -1  1           |    0  0  1 -1  0  1  0 -1  1
   -1  1  0 -1  0  1 -1  0  0           |   -1  1  0 -1  0  1 -1  0  0
    1 -1  0  1  0 -1  1  0  0           |    1 -1  0  1  0 -1  1  0  0
  typat:                                |  typat:
    1  1                                |    1  1
  so_psp  :                             |  so_psp  :
    1                                   |    1
  tnons:                                |  tnons:
     0.0000000   0.0000000   0.0000000  |     0.0000000   0.0000000   0.0000000
     0.2500000   0.2500000   0.2500000  |     0.2500000   0.2500000   0.2500000
     0.0000000   0.0000000   0.0000000  |     0.0000000   0.0000000   0.0000000
     0.2500000   0.2500000   0.2500000  |     0.2500000   0.2500000   0.2500000
     0.0000000   0.0000000   0.0000000  |     0.0000000   0.0000000   0.0000000
     0.2500000   0.2500000   0.2500000  |     0.2500000   0.2500000   0.2500000
     0.0000000   0.0000000   0.0000000  |     0.0000000   0.0000000   0.0000000
     0.2500000   0.2500000   0.2500000  |     0.2500000   0.2500000   0.2500000
     0.0000000   0.0000000   0.0000000  |     0.0000000   0.0000000   0.0000000
     0.2500000   0.2500000   0.2500000  |     0.2500000   0.2500000   0.2500000
     0.0000000   0.0000000   0.0000000  |     0.0000000   0.0000000   0.0000000
     0.2500000   0.2500000   0.2500000  |     0.2500000   0.2500000   0.2500000
     0.0000000   0.0000000   0.0000000  |     0.0000000   0.0000000   0.0000000
     0.2500000   0.2500000   0.2500000  |     0.2500000   0.2500000   0.2500000
     0.0000000   0.0000000   0.0000000  |     0.0000000   0.0000000   0.0000000
     0.2500000   0.2500000   0.2500000  |     0.2500000   0.2500000   0.2500000
     0.0000000   0.0000000   0.0000000  |     0.0000000   0.0000000   0.0000000
     0.2500000   0.2500000   0.2500000  |     0.2500000   0.2500000   0.2500000
     0.0000000   0.0000000   0.0000000  |     0.0000000   0.0000000   0.0000000
     0.2500000   0.2500000   0.2500000  |     0.2500000   0.2500000   0.2500000
     0.0000000   0.0000000   0.0000000  |     0.0000000   0.0000000   0.0000000
     0.2500000   0.2500000   0.2500000  |     0.2500000   0.2500000   0.2500000
     0.0000000   0.0000000   0.0000000  |     0.0000000   0.0000000   0.0000000
     0.2500000   0.2500000   0.2500000  |     0.2500000   0.2500000   0.2500000
     0.0000000   0.0000000   0.0000000  |     0.0000000   0.0000000   0.0000000
     0.2500000   0.2500000   0.2500000  |     0.2500000   0.2500000   0.2500000
     0.0000000   0.0000000   0.0000000  |     0.0000000   0.0000000   0.0000000
     0.2500000   0.2500000   0.2500000  |     0.2500000   0.2500000   0.2500000
     0.0000000   0.0000000   0.0000000  |     0.0000000   0.0000000   0.0000000
     0.2500000   0.2500000   0.2500000  |     0.2500000   0.2500000   0.2500000
     0.0000000   0.0000000   0.0000000  |     0.0000000   0.0000000   0.0000000
     0.2500000   0.2500000   0.2500000  |     0.2500000   0.2500000   0.2500000
     0.0000000   0.0000000   0.0000000  |     0.0000000   0.0000000   0.0000000
     0.2500000   0.2500000   0.2500000  |     0.2500000   0.2500000   0.2500000
     0.0000000   0.0000000   0.0000000  |     0.0000000   0.0000000   0.0000000
     0.2500000   0.2500000   0.2500000  |     0.2500000   0.2500000   0.2500000
     0.0000000   0.0000000   0.0000000  |     0.0000000   0.0000000   0.0000000
     0.2500000   0.2500000   0.2500000  |     0.2500000   0.2500000   0.2500000
     0.0000000   0.0000000   0.0000000  |     0.0000000   0.0000000   0.0000000
     0.2500000   0.2500000   0.2500000  |     0.2500000   0.2500000   0.2500000
     0.0000000   0.0000000   0.0000000  |     0.0000000   0.0000000   0.0000000
     0.2500000   0.2500000   0.2500000  |     0.2500000   0.2500000   0.2500000
     0.0000000   0.0000000   0.0000000  |     0.0000000   0.0000000   0.0000000
     0.2500000   0.2500000   0.2500000  |     0.2500000   0.2500000   0.2500000
     0.0000000   0.0000000   0.0000000  |     0.0000000   0.0000000   0.0000000
     0.2500000   0.2500000   0.2500000  |     0.2500000   0.2500000   0.2500000
     0.0000000   0.0000000   0.0000000  |     0.0000000   0.0000000   0.0000000
     0.2500000   0.2500000   0.2500000  |     0.2500000   0.2500000   0.2500000
   znucl:                               |   znucl:
   14.00                                |   14.00
  pseudopotential atom type  1:         |  pseudopotential atom type  1:
  pspso   0 pspxc   1                   |  pspso   0 pspxc   1
  pspdat 940714 pspcod    1 zion   4.0  |  pspdat 940714 pspcod    1 zion   4.0
  xred:                                 |  xred:
     0.0000000   0.0000000   0.0000000  |     0.0000000   0.0000000   0.0000000
     0.2500000   0.2500000   0.2500000  |     0.2500000   0.2500000   0.2500000
 hdr_check:  Density/Potential file is OK for restart of calculation
================================================================================
ioarr: data read from disk file t3xo_relaxado_DS1_DEN

================================================================================

 getcut: wavevector=  0.0000  0.0000  0.0000  ngfft=  20  20  20
         ecut(hartree)=      8.000   => boxcut(ratio)=   2.17426
 vtorho : nnsclo_now= 10, note that nnsclo,dbl_nnsclo,istep=  0 0  1
 Non-SCF iterations; kpt #     1  , k= (  0.50000  0.00000  0.00000  ), band residuals:
 res:  5.68E-02  4.18E-02  7.25E-02  4.52E-02  1.69E-02  9.38E-02  3.81E-02  4.31E-02
 ene: -1.16E-01 -2.88E-02  1.92E-01  2.13E-01  3.07E-01  3.45E-01  5.04E-01  5.99E-01
 res:  5.71E-04  3.51E-04  4.01E-04  2.97E-03  4.01E-03  2.52E-05  1.24E-02  1.16E-02
 ene: -1.39E-01 -4.26E-02  1.73E-01  1.84E-01  2.85E-01  3.39E-01  3.54E-01  4.99E-01
 res:  4.06E-06  1.17E-06  9.55E-09  2.16E-04  2.80E-04  2.80E-09  2.73E-04  3.61E-05
 ene: -1.39E-01 -4.26E-02  1.72E-01  1.73E-01  2.71E-01  3.39E-01  3.39E-01  4.94E-01
 res:  1.64E-09  2.94E-10  3.36E-13  5.52E-08  2.81E-08  2.52E-13  6.51E-09  8.90E-08
 ene: -1.39E-01 -4.26E-02  1.72E-01  1.72E-01  2.71E-01  3.39E-01  3.39E-01  4.94E-01
 res:  2.12E-13  5.21E-13  3.24E-13  2.24E-12  2.38E-12  2.74E-13  5.00E-13  3.60E-10
 ene: -1.39E-01 -4.26E-02  1.72E-01  1.72E-01  2.71E-01  3.39E-01  3.39E-01  4.94E-01
 res:  2.12E-13  5.21E-13  3.01E-13  1.21E-13  1.71E-13  4.07E-13  3.68E-13  1.70E-12
 ene: -1.39E-01 -4.26E-02  1.72E-01  1.72E-01  2.71E-01  3.39E-01  3.39E-01  4.94E-01
     eigenvalues (hartree) for    8  bands
              after    6 non-SCF iterations with    4 CG line minimizations
 -1.3928E-01 -4.2641E-02  1.7250E-01  1.7250E-01  2.7135E-01  3.3941E-01
  3.3941E-01  4.9441E-01
      mean kinetic energy (hartree) for     8   bands
              after    6 non-SCF iterations with    4 CG line minimizations
  2.0577E-01  2.4953E-01  5.8893E-01  5.8893E-01  5.6148E-01  6.3866E-01
  6.3866E-01  5.9138E-01
      mean non-local energy (hartree) for     8   bands
              after    6 non-SCF iterations with    4 CG line minimizations
  3.0682E-01  2.1438E-01  2.0197E-01  2.0197E-01  4.0873E-01  1.0005E-01
  1.0005E-01  7.8711E-02
 Non-SCF iterations; kpt #     2  , k= (  0.45000  0.00000  0.00000  ), band residuals:
 res:  3.36E-02  4.84E-02  5.11E-02  2.75E-02  7.70E-02  2.24E-02  3.26E-02  5.09E-02
 ene: -1.30E-01 -2.96E-02  1.78E-01  1.80E-01  2.78E-01  3.44E-01  3.73E-01  5.66E-01
 res:  1.47E-04  3.87E-05  4.07E-05  1.75E-04  1.00E-04  6.41E-05  4.53E-04  3.06E-03
 ene: -1.44E-01 -3.53E-02  1.73E-01  1.73E-01  2.72E-01  3.40E-01  3.40E-01  4.96E-01
 res:  1.13E-07  1.11E-08  6.12E-09  2.42E-07  1.36E-07  3.59E-09  6.26E-07  7.08E-06
 ene: -1.44E-01 -3.53E-02  1.73E-01  1.73E-01  2.72E-01  3.40E-01  3.40E-01  4.96E-01
 res:  2.59E-12  2.10E-13  2.27E-13  6.08E-12  6.65E-12  9.84E-13  1.43E-10  1.09E-07
 ene: -1.44E-01 -3.53E-02  1.73E-01  1.73E-01  2.72E-01  3.40E-01  3.40E-01  4.96E-01
 res:  1.96E-13  2.10E-13  2.30E-13  3.57E-13  5.74E-13  1.89E-13  5.77E-13  3.85E-10
 ene: -1.44E-01 -3.53E-02  1.73E-01  1.73E-01  2.72E-01  3.40E-01  3.40E-01  4.96E-01
     eigenvalues (hartree) for    8  bands
              after    5 non-SCF iterations with    4 CG line minimizations
 -1.4440E-01 -3.5259E-02  1.7310E-01  1.7310E-01  2.7205E-01  3.4003E-01
  3.4003E-01  4.9559E-01
      mean kinetic energy (hartree) for     8   bands
              after    5 non-SCF iterations with    4 CG line minimizations
  1.9570E-01  2.6304E-01  5.8983E-01  5.8983E-01  5.6289E-01  6.4201E-01
  6.4201E-01  5.9731E-01
      mean non-local energy (hartree) for     8   bands
              after    5 non-SCF iterations with    4 CG line minimizations
  3.0012E-01  2.2090E-01  2.0128E-01  2.0128E-01  4.0654E-01  1.0173E-01
  1.0173E-01  8.0616E-02
 Non-SCF iterations; kpt #     3  , k= (  0.40000  0.00000  0.00000  ), band residuals:
 res:  5.12E-02  6.92E-02  6.16E-02  4.26E-02  3.33E-02  6.26E-02  3.19E-02  4.85E-02
 ene: -1.31E-01  8.97E-03  1.79E-01  1.85E-01  2.96E-01  3.54E-01  3.73E-01  5.71E-01
 res:  3.30E-04  6.43E-04  4.84E-05  1.62E-04  5.24E-04  2.88E-04  5.60E-04  3.41E-03
 ene: -1.56E-01 -1.60E-02  1.75E-01  1.75E-01  2.75E-01  3.42E-01  3.42E-01  5.01E-01
 res:  1.00E-07  7.25E-07  8.74E-09  1.50E-07  7.67E-07  1.78E-08  8.73E-07  9.88E-05
 ene: -1.56E-01 -1.64E-02  1.75E-01  1.75E-01  2.74E-01  3.42E-01  3.42E-01  4.99E-01
 res:  2.27E-12  7.75E-12  2.02E-13  4.28E-12  6.78E-11  5.93E-12  3.40E-10  2.16E-06
 ene: -1.56E-01 -1.64E-02  1.75E-01  1.75E-01  2.74E-01  3.42E-01  3.42E-01  4.99E-01
 res:  1.81E-13  4.38E-13  2.21E-13  2.74E-13  7.92E-13  1.54E-13  8.46E-13  9.51E-08
 ene: -1.56E-01 -1.64E-02  1.75E-01  1.75E-01  2.74E-01  3.42E-01  3.42E-01  4.99E-01
     eigenvalues (hartree) for    8  bands
              after    5 non-SCF iterations with    4 CG line minimizations
 -1.5640E-01 -1.6383E-02  1.7509E-01  1.7509E-01  2.7431E-01  3.4210E-01
  3.4210E-01  4.9883E-01
      mean kinetic energy (hartree) for     8   bands
              after    5 non-SCF iterations with    4 CG line minimizations
  1.7467E-01  2.9369E-01  5.9229E-01  5.9229E-01  5.6573E-01  6.5058E-01
  6.5058E-01  6.1860E-01
      mean non-local energy (hartree) for     8   bands
              after    5 non-SCF iterations with    4 CG line minimizations
  2.8861E-01  2.3324E-01  2.0086E-01  2.0086E-01  4.0344E-01  1.0759E-01
  1.0759E-01  9.1089E-02
 Non-SCF iterations; kpt #     4  , k= (  0.35000  0.00000  0.00000  ), band residuals:
 res:  3.33E-02  5.74E-02  6.98E-02  4.73E-02  3.67E-02  1.58E-02  3.96E-02  3.84E-02
 ene: -1.33E-01  1.92E-02  1.88E-01  2.01E-01  3.02E-01  3.50E-01  3.93E-01  5.33E-01
 res:  6.73E-04  3.50E-04  7.75E-05  8.08E-04  6.20E-04  8.69E-05  1.51E-03  2.09E-03
 ene: -1.70E-01  9.16E-03  1.78E-01  1.79E-01  2.78E-01  3.45E-01  3.45E-01  5.05E-01
 res:  3.17E-07  1.57E-07  3.41E-08  9.16E-07  5.96E-07  3.49E-08  7.97E-07  4.20E-04
 ene: -1.71E-01  9.09E-03  1.78E-01  1.78E-01  2.78E-01  3.45E-01  3.45E-01  5.02E-01
 res:  1.23E-11  2.78E-12  1.53E-12  4.51E-11  6.26E-11  1.63E-11  4.47E-10  1.02E-05
 ene: -1.71E-01  9.09E-03  1.78E-01  1.78E-01  2.78E-01  3.45E-01  3.45E-01  5.01E-01
 res:  5.85E-13  1.23E-13  1.39E-13  2.35E-13  2.11E-13  4.36E-13  2.21E-13  6.19E-06
 ene: -1.71E-01  9.09E-03  1.78E-01  1.78E-01  2.78E-01  3.45E-01  3.45E-01  5.01E-01
     eigenvalues (hartree) for    8  bands
              after    5 non-SCF iterations with    4 CG line minimizations
 -1.7058E-01  9.0899E-03  1.7840E-01  1.7840E-01  2.7799E-01  3.4472E-01
  3.4472E-01  5.0134E-01
      mean kinetic energy (hartree) for     8   bands
              after    5 non-SCF iterations with    4 CG line minimizations
  1.5278E-01  3.3172E-01  5.9662E-01  5.9662E-01  5.7095E-01  6.6417E-01
  6.6417E-01  6.8103E-01
      mean non-local energy (hartree) for     8   bands
              after    5 non-SCF iterations with    4 CG line minimizations
  2.7901E-01  2.4345E-01  2.0031E-01  2.0031E-01  3.9781E-01  1.1769E-01
  1.1769E-01  1.4026E-01
 Non-SCF iterations; kpt #     5  , k= (  0.30000  0.00000  0.00000  ), band residuals:
 res:  6.86E-02  3.18E-02  7.38E-02  3.23E-02  3.99E-02  4.53E-02  2.60E-02  3.40E-02
 ene: -1.73E-01  5.27E-02  1.89E-01  2.07E-01  3.13E-01  3.58E-01  3.71E-01  5.27E-01
 res:  1.54E-04  2.02E-04  7.41E-05  6.31E-04  6.61E-04  1.43E-04  8.69E-04  8.19E-04
 ene: -1.84E-01  3.87E-02  1.83E-01  1.83E-01  2.83E-01  3.47E-01  3.47E-01  4.97E-01
 res:  1.61E-07  1.37E-07  1.14E-08  5.40E-07  2.41E-07  5.25E-08  4.02E-07  1.73E-04
 ene: -1.84E-01  3.87E-02  1.83E-01  1.83E-01  2.83E-01  3.46E-01  3.46E-01  4.96E-01
 res:  1.44E-11  4.36E-12  9.01E-13  3.03E-11  4.23E-11  6.23E-11  7.97E-11  2.64E-04
 ene: -1.84E-01  3.87E-02  1.83E-01  1.83E-01  2.83E-01  3.46E-01  3.46E-01  4.94E-01
 res:  2.07E-13  3.96E-13  1.95E-13  1.31E-13  9.81E-13  6.27E-13  9.82E-14  8.09E-05
 ene: -1.84E-01  3.87E-02  1.83E-01  1.83E-01  2.83E-01  3.46E-01  3.46E-01  4.93E-01
     eigenvalues (hartree) for    8  bands
              after    5 non-SCF iterations with    4 CG line minimizations
 -1.8444E-01  3.8652E-02  1.8299E-01  1.8299E-01  2.8296E-01  3.4649E-01
  3.4649E-01  4.9337E-01
      mean kinetic energy (hartree) for     8   bands
              after    5 non-SCF iterations with    4 CG line minimizations
  1.3311E-01  3.7401E-01  6.0299E-01  6.0299E-01  5.7911E-01  6.8064E-01
  6.8064E-01  8.0336E-01
      mean non-local energy (hartree) for     8   bands
              after    5 non-SCF iterations with    4 CG line minimizations
  2.7206E-01  2.5128E-01  1.9982E-01  1.9982E-01  3.8917E-01  1.3195E-01
  1.3195E-01  2.9024E-01
 Non-SCF iterations; kpt #     6  , k= (  0.25000  0.00000  0.00000  ), band residuals:
 res:  4.71E-02  5.95E-02  2.24E-02  5.03E-02  3.02E-02  2.68E-02  3.27E-02  2.75E-02
 ene: -1.76E-01  8.40E-02  1.93E-01  2.01E-01  2.96E-01  3.55E-01  3.66E-01  4.97E-01
 res:  2.25E-04  1.37E-04  2.90E-05  1.78E-04  1.14E-04  1.84E-04  3.06E-04  1.14E-03
 ene: -1.97E-01  7.10E-02  1.89E-01  1.89E-01  2.89E-01  3.45E-01  3.46E-01  4.70E-01
 res:  8.67E-08  6.13E-08  1.00E-08  8.64E-08  8.05E-08  1.94E-07  2.18E-07  5.32E-04
 ene: -1.97E-01  7.10E-02  1.89E-01  1.89E-01  2.89E-01  3.45E-01  3.45E-01  4.67E-01
 res:  9.13E-12  3.49E-12  5.56E-13  7.51E-12  1.83E-11  6.50E-11  5.07E-10  6.20E-06
 ene: -1.97E-01  7.10E-02  1.89E-01  1.89E-01  2.89E-01  3.45E-01  3.45E-01  4.67E-01
 res:  8.38E-13  1.65E-13  5.69E-13  5.39E-13  5.62E-13  1.30E-13  3.37E-13  5.35E-06
 ene: -1.97E-01  7.10E-02  1.89E-01  1.89E-01  2.89E-01  3.45E-01  3.45E-01  4.67E-01
     eigenvalues (hartree) for    8  bands
              after    5 non-SCF iterations with    4 CG line minimizations
 -1.9692E-01  7.0958E-02  1.8875E-01  1.8875E-01  2.8922E-01  3.4546E-01
  3.4546E-01  4.6689E-01
      mean kinetic energy (hartree) for     8   bands
              after    5 non-SCF iterations with    4 CG line minimizations
  1.1653E-01  4.2002E-01  6.1174E-01  6.1174E-01  5.8940E-01  6.9472E-01
  6.9472E-01  8.2846E-01
      mean non-local energy (hartree) for     8   bands
              after    5 non-SCF iterations with    4 CG line minimizations
  2.6665E-01  2.5681E-01  1.9964E-01  1.9964E-01  3.7845E-01  1.4745E-01
  1.4745E-01  4.5737E-01
 Non-SCF iterations; kpt #     7  , k= (  0.20000  0.00000  0.00000  ), band residuals:
 res:  5.79E-02  4.66E-02  5.76E-02  3.95E-02  2.72E-02  1.93E-02  2.24E-02  2.30E-02
 ene: -1.75E-01  1.13E-01  2.01E-01  2.14E-01  3.12E-01  3.49E-01  3.84E-01  4.78E-01
 res:  4.29E-04  1.13E-04  8.62E-05  3.61E-04  4.27E-04  1.74E-04  1.89E-03  7.22E-03
 ene: -2.07E-01  1.05E-01  1.96E-01  1.96E-01  2.97E-01  3.40E-01  3.41E-01  4.41E-01
 res:  8.52E-07  1.31E-07  9.26E-09  1.61E-06  2.42E-06  1.49E-07  1.05E-05  7.03E-05
[...]
 ene: -2.22E-01  1.82E-01  1.99E-01  2.15E-01  3.15E-01  3.18E-01  3.20E-01  3.68E-01
 res:  7.58E-13  3.84E-13  5.30E-13  2.10E-13  1.58E-13  9.93E-13  8.77E-13  8.30E-12
 ene: -2.22E-01  1.82E-01  1.99E-01  2.15E-01  3.15E-01  3.18E-01  3.20E-01  3.68E-01
     eigenvalues (hartree) for    8  bands
              after    5 non-SCF iterations with    4 CG line minimizations
 -2.2228E-01  1.8166E-01  1.9934E-01  2.1528E-01  3.1495E-01  3.1834E-01
  3.2029E-01  3.6828E-01
      mean kinetic energy (hartree) for     8   bands
              after    5 non-SCF iterations with    4 CG line minimizations
  8.4236E-02  5.9801E-01  6.1901E-01  6.6885E-01  6.5437E-01  6.6621E-01
  6.6371E-01  7.3054E-01
      mean non-local energy (hartree) for     8   bands
              after    5 non-SCF iterations with    4 CG line minimizations
  2.5817E-01  2.5729E-01  1.9472E-01  2.0827E-01  1.5547E-01  1.7355E-01
  2.7957E-01  6.0785E-01
 Non-SCF iterations; kpt #    39  , k= (  0.94118  0.97059  0.97059  ), band residuals:
 res:  1.05E-01  7.34E-02  4.05E-02  3.08E-02  1.25E-02  2.88E-02  3.66E-02  1.89E-02
 ene: -1.99E-01  2.12E-01  2.22E-01  2.38E-01  3.17E-01  3.36E-01  3.53E-01  4.76E-01
 res:  4.85E-04  8.72E-05  2.28E-04  7.11E-04  4.11E-05  3.51E-04  1.17E-03  2.42E-03
 ene: -2.25E-01  2.06E-01  2.13E-01  2.18E-01  3.12E-01  3.13E-01  3.16E-01  3.46E-01
 res:  8.78E-07  5.18E-07  1.41E-06  4.02E-06  5.30E-07  2.09E-06  4.06E-06  4.83E-06
 ene: -2.26E-01  2.06E-01  2.12E-01  2.17E-01  3.12E-01  3.13E-01  3.15E-01  3.45E-01
 res:  2.75E-10  2.99E-11  6.29E-10  9.90E-10  6.61E-10  1.13E-09  1.36E-09  5.75E-09
 ene: -2.26E-01  2.06E-01  2.12E-01  2.17E-01  3.11E-01  3.13E-01  3.15E-01  3.45E-01
 res:  6.88E-13  5.02E-13  5.56E-14  1.24E-13  3.89E-13  5.13E-13  1.41E-13  6.31E-12
 ene: -2.26E-01  2.06E-01  2.12E-01  2.17E-01  3.11E-01  3.13E-01  3.15E-01  3.45E-01
     eigenvalues (hartree) for    8  bands
              after    5 non-SCF iterations with    4 CG line minimizations
 -2.2566E-01  2.0620E-01  2.1243E-01  2.1687E-01  3.1150E-01  3.1253E-01
  3.1496E-01  3.4516E-01
      mean kinetic energy (hartree) for     8   bands
              after    5 non-SCF iterations with    4 CG line minimizations
  8.0043E-02  6.4459E-01  6.5591E-01  6.7073E-01  6.4994E-01  6.5433E-01
  6.5866E-01  6.8378E-01
      mean non-local energy (hartree) for     8   bands
              after    5 non-SCF iterations with    4 CG line minimizations
  2.5722E-01  2.2848E-01  2.0303E-01  2.0729E-01  1.5519E-01  1.6128E-01
  1.8584E-01  7.3527E-01
 Non-SCF iterations; kpt #    40  , k= (  1.00000  1.00000  1.00000  ), band residuals:
 res:  8.46E-02  9.53E-02  6.10E-02  2.90E-02  1.07E-02  2.03E-02  3.76E-02  9.72E-03
 ene: -1.85E-01  2.21E-01  2.25E-01  2.49E-01  3.13E-01  3.20E-01  3.35E-01  4.14E-01
 res:  7.22E-04  4.09E-05  8.53E-05  1.20E-03  3.44E-05  1.30E-04  5.61E-04  1.50E-03
 ene: -2.27E-01  2.17E-01  2.17E-01  2.19E-01  3.10E-01  3.10E-01  3.10E-01  3.37E-01
 res:  1.19E-06  1.60E-09  1.54E-08  2.89E-06  1.33E-08  3.78E-08  5.09E-07  1.74E-06
 ene: -2.27E-01  2.17E-01  2.17E-01  2.17E-01  3.10E-01  3.10E-01  3.10E-01  3.37E-01
 res:  1.30E-10  1.93E-13  1.72E-12  9.14E-11  5.15E-12  1.24E-11  2.12E-10  3.70E-10
 ene: -2.27E-01  2.17E-01  2.17E-01  2.17E-01  3.10E-01  3.10E-01  3.10E-01  3.37E-01
 res:  5.82E-13  3.49E-13  4.55E-13  3.17E-13  3.45E-13  2.86E-13  6.34E-13  2.68E-13
 ene: -2.27E-01  2.17E-01  2.17E-01  2.17E-01  3.10E-01  3.10E-01  3.10E-01  3.37E-01
     eigenvalues (hartree) for    8  bands
              after    5 non-SCF iterations with    4 CG line minimizations
 -2.2678E-01  2.1738E-01  2.1738E-01  2.1738E-01  3.1036E-01  3.1036E-01
  3.1036E-01  3.3704E-01
      mean kinetic energy (hartree) for     8   bands
              after    5 non-SCF iterations with    4 CG line minimizations
  7.8604E-02  6.7122E-01  6.7122E-01  6.7122E-01  6.4845E-01  6.4845E-01
  6.4845E-01  6.6477E-01
      mean non-local energy (hartree) for     8   bands
              after    5 non-SCF iterations with    4 CG line minimizations
  2.5699E-01  2.0693E-01  2.0693E-01  2.0693E-01  1.5513E-01  1.5513E-01
  1.5513E-01  7.8740E-01
   1  2  1  2  1  2  1  2  1  2  1  2  1  2  1  2  1  2  1  2  1  2  1  2
   1  2  1  2  1  2  1  2  1  2  1  2  1  2  1  2  1  2  1  2  1  2  1  2
   2  1  2  1  2  1  2  1  2  1  2  1  2  1  2  1  2  1  2  1  2  1  2  1
   2  1  2  1  2  1  2  1  2  1  2  1  2  1  2  1  2  1  2  1  2  1  2  1
 ioarr: writing density data
ioarr: file name is t3xo_relaxado_DS2_DEN
ioarr: data written to disk file t3xo_relaxado_DS2_DEN
================================================================================

 ----iterations are completed or convergence reached----


 outwf: write wavefunction to file t3xo_relaxado_DS2_WFK, with accesswff -1
 outwf with iomode: -1, cpu:     0.00, wall:     0.00

== END DATASET(S) ==============================================================
================================================================================
  
 -outvars: echo values of variables after computation  --------
            acell      1.0217000000E+01  1.0217000000E+01  1.0217000000E+01 Bohr
              amu      2.80855000E+01
           diemac      1.20000000E+01
             ecut      8.00000000E+00 Hartree
           enunit1          0
           enunit2          1
           etotal1    -8.8725570746E+00
            fcart1    -0.0000000000E+00 -0.0000000000E+00 -0.0000000000E+00
                      -0.0000000000E+00 -0.0000000000E+00 -0.0000000000E+00
-          fftalg         112
           getden1          0
           getden2         -1
             iscf1          7
             iscf2         -2
           istwfk2       3    0    0    0    0    0    0    0    0    0
                         2    0    0    0    0    0    0    0    0    0
                         0    0    8    0    0    0    0    0    0    0
                         0    0    0    0    0    0    0    0    0    0
           jdtset        1    2
              kpt1    -1.25000000E-01 -2.50000000E-01  0.00000000E+00
                      -1.25000000E-01  5.00000000E-01  0.00000000E+00
                      -2.50000000E-01 -3.75000000E-01  0.00000000E+00
                      -1.25000000E-01 -3.75000000E-01  1.25000000E-01
                      -1.25000000E-01  2.50000000E-01  0.00000000E+00
                      -2.50000000E-01  3.75000000E-01  0.00000000E+00
                      -3.75000000E-01  5.00000000E-01  0.00000000E+00
                      -2.50000000E-01  5.00000000E-01  1.25000000E-01
                      -1.25000000E-01  0.00000000E+00  0.00000000E+00
                      -3.75000000E-01  0.00000000E+00  0.00000000E+00
              kpt2     5.00000000E-01  0.00000000E+00  0.00000000E+00
                       4.50000000E-01  0.00000000E+00  0.00000000E+00
                       4.00000000E-01  0.00000000E+00  0.00000000E+00
                       3.50000000E-01  0.00000000E+00  0.00000000E+00
                       3.00000000E-01  0.00000000E+00  0.00000000E+00
                       2.50000000E-01  0.00000000E+00  0.00000000E+00
                       2.00000000E-01  0.00000000E+00  0.00000000E+00
                       1.50000000E-01  0.00000000E+00  0.00000000E+00
                       1.00000000E-01  0.00000000E+00  0.00000000E+00
                       5.00000000E-02  0.00000000E+00  0.00000000E+00
                       0.00000000E+00  0.00000000E+00  0.00000000E+00
                       0.00000000E+00  4.16666667E-02  4.16666667E-02
                       0.00000000E+00  8.33333333E-02  8.33333333E-02
                       0.00000000E+00  1.25000000E-01  1.25000000E-01
                       0.00000000E+00  1.66666667E-01  1.66666667E-01
                       0.00000000E+00  2.08333333E-01  2.08333333E-01
                       0.00000000E+00  2.50000000E-01  2.50000000E-01
                       0.00000000E+00  2.91666667E-01  2.91666667E-01
                       0.00000000E+00  3.33333333E-01  3.33333333E-01
                       0.00000000E+00  3.75000000E-01  3.75000000E-01
                       0.00000000E+00  4.16666667E-01  4.16666667E-01
                       0.00000000E+00  4.58333333E-01  4.58333333E-01
                       0.00000000E+00  5.00000000E-01  5.00000000E-01
                       5.88235294E-02  5.29411765E-01  5.29411765E-01
                       1.17647059E-01  5.58823529E-01  5.58823529E-01
                       1.76470588E-01  5.88235294E-01  5.88235294E-01
                       2.35294118E-01  6.17647059E-01  6.17647059E-01
                       2.94117647E-01  6.47058824E-01  6.47058824E-01
                       3.52941176E-01  6.76470588E-01  6.76470588E-01
                       4.11764706E-01  7.05882353E-01  7.05882353E-01
                       4.70588235E-01  7.35294118E-01  7.35294118E-01
                       5.29411765E-01  7.64705882E-01  7.64705882E-01
                       5.88235294E-01  7.94117647E-01  7.94117647E-01
                       6.47058824E-01  8.23529412E-01  8.23529412E-01
                       7.05882353E-01  8.52941176E-01  8.52941176E-01
                       7.64705882E-01  8.82352941E-01  8.82352941E-01
                       8.23529412E-01  9.11764706E-01  9.11764706E-01
                       8.82352941E-01  9.41176471E-01  9.41176471E-01
                       9.41176471E-01  9.70588235E-01  9.70588235E-01
                       1.00000000E+00  1.00000000E+00  1.00000000E+00
           kptopt1          1
           kptopt2         -3
         kptrlatt        4   -4    4     -4    4    4     -4   -4    4
          kptrlen1     4.08680000E+01
          kptrlen2     3.00000000E+01
P           mkmem1         10
P           mkmem2         40
            natom           2
            nband1          5
            nband2          8
           nbdbuf1          0
           nbdbuf2          2
           ndtset           2
            ngfft          20      20      20
             nkpt1         10
             nkpt2         40
            nstep          10
             nsym          48
           ntypat           1
              occ      2.000000  2.000000  2.000000  2.000000  0.000000
            rprim      0.0000000000E+00  5.0000000000E-01  5.0000000000E-01
                       5.0000000000E-01  0.0000000000E+00  5.0000000000E-01
                       5.0000000000E-01  5.0000000000E-01  0.0000000000E+00
           shiftk      5.00000000E-01  5.00000000E-01  5.00000000E-01
          spgroup         227
           strten1     3.0255403830E-05  3.0255403830E-05  3.0255403830E-05
                       0.0000000000E+00  0.0000000000E+00  0.0000000000E+00
           symrel      1  0  0   0  1  0   0  0  1      -1  0  0   0 -1  0   0  0 -1
                       0 -1  1   0 -1  0   1 -1  0       0  1 -1   0  1  0  -1  1  0
                      -1  0  0  -1  0  1  -1  1  0       1  0  0   1  0 -1   1 -1  0
                       0  1 -1   1  0 -1   0  0 -1       0 -1  1  -1  0  1   0  0  1
                      -1  0  0  -1  1  0  -1  0  1       1  0  0   1 -1  0   1  0 -1
                       0 -1  1   1 -1  0   0 -1  0       0  1 -1  -1  1  0   0  1  0
                       1  0  0   0  0  1   0  1  0      -1  0  0   0  0 -1   0 -1  0
                       0  1 -1   0  0 -1   1  0 -1       0 -1  1   0  0  1  -1  0  1
                      -1  0  1  -1  1  0  -1  0  0       1  0 -1   1 -1  0   1  0  0
                       0 -1  0   1 -1  0   0 -1  1       0  1  0  -1  1  0   0  1 -1
                       1  0 -1   0  0 -1   0  1 -1      -1  0  1   0  0  1   0 -1  1
                       0  1  0   0  0  1   1  0  0       0 -1  0   0  0 -1  -1  0  0
                       1  0 -1   0  1 -1   0  0 -1      -1  0  1   0 -1  1   0  0  1
                       0 -1  0   0 -1  1   1 -1  0       0  1  0   0  1 -1  -1  1  0
                      -1  0  1  -1  0  0  -1  1  0       1  0 -1   1  0  0   1 -1  0
                       0  1  0   1  0  0   0  0  1       0 -1  0  -1  0  0   0  0 -1
                       0  0 -1   0  1 -1   1  0 -1       0  0  1   0 -1  1  -1  0  1
                       1 -1  0   0 -1  1   0 -1  0      -1  1  0   0  1 -1   0  1  0
                       0  0  1   1  0  0   0  1  0       0  0 -1  -1  0  0   0 -1  0
                      -1  1  0  -1  0  0  -1  0  1       1 -1  0   1  0  0   1  0 -1
                       0  0  1   0  1  0   1  0  0       0  0 -1   0 -1  0  -1  0  0
                       1 -1  0   0 -1  0   0 -1  1      -1  1  0   0  1  0   0  1 -1
                       0  0 -1   1  0 -1   0  1 -1       0  0  1  -1  0  1   0 -1  1
                      -1  1  0  -1  0  1  -1  0  0       1 -1  0   1  0 -1   1  0  0
            tnons      0.0000000  0.0000000  0.0000000     0.2500000  0.2500000  0.2500000
                       0.0000000  0.0000000  0.0000000     0.2500000  0.2500000  0.2500000
                       0.0000000  0.0000000  0.0000000     0.2500000  0.2500000  0.2500000
                       0.0000000  0.0000000  0.0000000     0.2500000  0.2500000  0.2500000
                       0.0000000  0.0000000  0.0000000     0.2500000  0.2500000  0.2500000
                       0.0000000  0.0000000  0.0000000     0.2500000  0.2500000  0.2500000
                       0.0000000  0.0000000  0.0000000     0.2500000  0.2500000  0.2500000
                       0.0000000  0.0000000  0.0000000     0.2500000  0.2500000  0.2500000
                       0.0000000  0.0000000  0.0000000     0.2500000  0.2500000  0.2500000
                       0.0000000  0.0000000  0.0000000     0.2500000  0.2500000  0.2500000
                       0.0000000  0.0000000  0.0000000     0.2500000  0.2500000  0.2500000
                       0.0000000  0.0000000  0.0000000     0.2500000  0.2500000  0.2500000
                       0.0000000  0.0000000  0.0000000     0.2500000  0.2500000  0.2500000
                       0.0000000  0.0000000  0.0000000     0.2500000  0.2500000  0.2500000
                       0.0000000  0.0000000  0.0000000     0.2500000  0.2500000  0.2500000
                       0.0000000  0.0000000  0.0000000     0.2500000  0.2500000  0.2500000
                       0.0000000  0.0000000  0.0000000     0.2500000  0.2500000  0.2500000
                       0.0000000  0.0000000  0.0000000     0.2500000  0.2500000  0.2500000
                       0.0000000  0.0000000  0.0000000     0.2500000  0.2500000  0.2500000
                       0.0000000  0.0000000  0.0000000     0.2500000  0.2500000  0.2500000
                       0.0000000  0.0000000  0.0000000     0.2500000  0.2500000  0.2500000
                       0.0000000  0.0000000  0.0000000     0.2500000  0.2500000  0.2500000
                       0.0000000  0.0000000  0.0000000     0.2500000  0.2500000  0.2500000
                       0.0000000  0.0000000  0.0000000     0.2500000  0.2500000  0.2500000
           toldfe1     1.00000000E-06 Hartree
           toldfe2     0.00000000E+00 Hartree
           tolwfr1     0.00000000E+00
           tolwfr2     1.00000000E-12
            typat      1  1
              wtk1       0.09375    0.09375    0.09375    0.18750    0.09375    0.09375
                         0.09375    0.18750    0.03125    0.03125
              wtk2       1.00000    1.00000    1.00000    1.00000    1.00000    1.00000
                         1.00000    1.00000    1.00000    1.00000    1.00000    1.00000
                         1.00000    1.00000    1.00000    1.00000    1.00000    1.00000
                         1.00000    1.00000    1.00000    1.00000    1.00000    1.00000
                         1.00000    1.00000    1.00000    1.00000    1.00000    1.00000
                         1.00000    1.00000    1.00000    1.00000    1.00000    1.00000
                         1.00000    1.00000    1.00000    1.00000
           xangst      0.0000000000E+00  0.0000000000E+00  0.0000000000E+00
                       1.3516508850E+00  1.3516508850E+00  1.3516508850E+00
            xcart      0.0000000000E+00  0.0000000000E+00  0.0000000000E+00
                       2.5542500000E+00  2.5542500000E+00  2.5542500000E+00
             xred      0.0000000000E+00  0.0000000000E+00  0.0000000000E+00
                       2.5000000000E-01  2.5000000000E-01  2.5000000000E-01
            znucl       14.00000

================================================================================
  

================================================================================

 Suggested references for the acknowledgment of ABINIT usage.

 The users of ABINIT have little formal obligations with respect to the ABINIT group
 (those specified in the GNU General Public License, http://www.gnu.org/copyleft/gpl.txt).
 However, it is common practice in the scientific literature,
 to acknowledge the efforts of people that have made the research possible.
 In this spirit, please find below suggested citations of work written by ABINIT developers,
 corresponding to implementations inside of ABINIT that you have used in the present run.
 Note also that it will be of great value to readers of publications presenting these results,
 to read papers enabling them to understand the theoretical formalism and details
 of the ABINIT implementation.
 For information on why they are suggested, see also http://www.abinit.org/about/?text=acknowledgments.

 [1] ABINIT : First-principles approach of materials and nanosystem properties.
 X. Gonze, B. Amadon, P.-M. Anglade, J.-M. Beuken, F. Bottin, P. Boulanger, F. Bruneval,
 D. Caliste, R. Caracas, M. Cote, T. Deutsch, L. Genovese, Ph. Ghosez, M. Giantomassi
 S. Goedecker, D.R. Hamann, P. Hermet, F. Jollet, G. Jomard, S. Leroux, M. Mancini, S. Mazevet,
 M.J.T. Oliveira, G. Onida, Y. Pouillon, T. Rangel, G.-M. Rignanese, D. Sangalli, R. Shaltaf,
 M. Torrent, M.J. Verstraete, G. Zerah, J.W. Zwanziger
 Computer Phys. Comm. 180, 2582-2615 (2009).
 Comment : the third generic paper describing the ABINIT project.
 Note that a version of this paper, that is not formatted for Computer Phys. Comm. 
 is available at http://www.abinit.org/about/ABINIT_CPC_v10.pdf .
 The licence allows the authors to put it on the Web.

 [2] A brief introduction to the ABINIT software package.
 X. Gonze, G.-M. Rignanese, M. Verstraete, J.-M. Beuken, Y. Pouillon, R. Caracas, F. Jollet,
 M. Torrent, G. Zerah, M. Mikami, Ph. Ghosez, M. Veithen, J.-Y. Raty, V. Olevano, F. Bruneval,
 L. Reining, R. Godby, G. Onida, D.R. Hamann, and D.C. Allan.
 Z. Kristallogr. 220, 558-562 (2005).
 Comment : the second generic paper describing the ABINIT project. Note that this paper
 should be cited especially if you are using the GW part of ABINIT, as several authors
 of this part are not in the list of authors of the first or third paper.
 The .pdf of the latter paper is available at http://www.abinit.org/about/zfk_0505-06_558-562.pdf.
 Note that it should not redistributed (Copyright by Oldenburg Wissenshaftverlag,
 the licence allows the authors to put it on the Web).


 And optionally :

 [3] First-principles computation of material properties : the ABINIT software project. 
 X. Gonze, J.-M. Beuken, R. Caracas, F. Detraux, M. Fuchs, G.-M. Rignanese, L. Sindic,
 M. Verstraete, G. Zerah, F. Jollet, M. Torrent, A. Roy, M. Mikami, Ph. Ghosez, J.-Y. Raty, D.C. Allan.
 Computational Materials Science 25, 478-492 (2002). http://dx.doi.org/10.1016/S0927-0256(02)00325-7
 Comment : the original paper describing the ABINIT project.

 [4] Fast radix 2, 3, 4 and 5 kernels for Fast Fourier Transformations
 on computers with overlapping multiply-add instructions.
 S. Goedecker, SIAM J. on Scientific Computing 18, 1605 (1997).

 Calculation completed.
.Delivered    2 WARNINGs and   1 COMMENTs to log file.
--- !FinalSummary
start_date: Tue Aug  1 21: 6:47 2017
end_date: Tue Aug  1 21: 6:49 2017
overall_cpu_time:           2.1
overall_wall_time:           2.2
...
